
                                 *****************
                                 * O   R   C   A *
                                 *****************

                                            #,                                       
                                            ###                                      
                                            ####                                     
                                            #####                                    
                                            ######                                   
                                           ########,                                 
                                     ,,################,,,,,                         
                               ,,#################################,,                 
                          ,,##########################################,,             
                       ,#########################################, ''#####,          
                    ,#############################################,,   '####,        
                  ,##################################################,,,,####,       
                ,###########''''           ''''###############################       
              ,#####''   ,,,,##########,,,,          '''####'''          '####       
            ,##' ,,,,###########################,,,                        '##       
           ' ,,###''''                  '''############,,,                           
         ,,##''                                '''############,,,,        ,,,,,,###''
      ,#''                                            '''#######################'''  
     '                                                          ''''####''''         
             ,#######,   #######,   ,#######,      ##                                
            ,#'     '#,  ##    ##  ,#'     '#,    #''#        ######   ,####,        
            ##       ##  ##   ,#'  ##            #'  '#       #        #'  '#        
            ##       ##  #######   ##           ,######,      #####,   #    #        
            '#,     ,#'  ##    ##  '#,     ,#' ,#      #,         ##   #,  ,#        
             '#######'   ##     ##  '#######'  #'      '#     #####' # '####'        



                  #######################################################
                  #                        -***-                        #
                  #          Department of theory and spectroscopy      #
                  #    Directorship and core code : Frank Neese         #
                  #        Max Planck Institute fuer Kohlenforschung    #
                  #                Kaiser Wilhelm Platz 1               #
                  #                 D-45470 Muelheim/Ruhr               #
                  #                      Germany                        #
                  #                                                     #
                  #                  All rights reserved                #
                  #                        -***-                        #
                  #######################################################



                         Program Version 5.0.4 -  RELEASE  -

 With contributions from (in alphabetic order):
   Daniel Aravena         : Magnetic Suceptibility
   Michael Atanasov       : Ab Initio Ligand Field Theory (pilot matlab implementation)
   Alexander A. Auer      : GIAO ZORA, VPT2 properties, NMR spectrum
   Ute Becker             : Parallelization
   Giovanni Bistoni       : ED, misc. LED, open-shell LED, HFLD
   Martin Brehm           : Molecular dynamics
   Dmytro Bykov           : SCF Hessian
   Vijay G. Chilkuri      : MRCI spin determinant printing, contributions to CSF-ICE
   Dipayan Datta          : RHF DLPNO-CCSD density
   Achintya Kumar Dutta   : EOM-CC, STEOM-CC
   Dmitry Ganyushin       : Spin-Orbit,Spin-Spin,Magnetic field MRCI
   Miquel Garcia          : C-PCM and meta-GGA Hessian, CC/C-PCM, Gaussian charge scheme
   Yang Guo               : DLPNO-NEVPT2, F12-NEVPT2, CIM, IAO-localization
   Andreas Hansen         : Spin unrestricted coupled pair/coupled cluster methods
   Benjamin Helmich-Paris : MC-RPA, TRAH-SCF, COSX integrals
   Lee Huntington         : MR-EOM, pCC
   Robert Izsak           : Overlap fitted RIJCOSX, COSX-SCS-MP3, EOM
   Marcus Kettner         : VPT2
   Christian Kollmar      : KDIIS, OOCD, Brueckner-CCSD(T), CCSD density, CASPT2, CASPT2-K
   Simone Kossmann        : Meta GGA functionals, TD-DFT gradient, OOMP2, MP2 Hessian
   Martin Krupicka        : Initial AUTO-CI
   Lucas Lang             : DCDCAS
   Marvin Lechner         : AUTO-CI (C++ implementation), FIC-MRCC
   Dagmar Lenk            : GEPOL surface, SMD
   Dimitrios Liakos       : Extrapolation schemes; Compound Job, initial MDCI parallelization
   Dimitrios Manganas     : Further ROCIS development; embedding schemes
   Dimitrios Pantazis     : SARC Basis sets
   Anastasios Papadopoulos: AUTO-CI, single reference methods and gradients
   Taras Petrenko         : DFT Hessian,TD-DFT gradient, ASA, ECA, R-Raman, ABS, FL, XAS/XES, NRVS
   Peter Pinski           : DLPNO-MP2, DLPNO-MP2 Gradient
   Christoph Reimann      : Effective Core Potentials
   Marius Retegan         : Local ZFS, SOC
   Christoph Riplinger    : Optimizer, TS searches, QM/MM, DLPNO-CCSD(T), (RO)-DLPNO pert. Triples
   Tobias Risthaus        : Range-separated hybrids, TD-DFT gradient, RPA, STAB
   Michael Roemelt        : Original ROCIS implementation
   Masaaki Saitow         : Open-shell DLPNO-CCSD energy and density
   Barbara Sandhoefer     : DKH picture change effects
   Avijit Sen             : IP-ROCIS
   Kantharuban Sivalingam : CASSCF convergence, NEVPT2, FIC-MRCI
   Bernardo de Souza      : ESD, SOC TD-DFT
   Georgi Stoychev        : AutoAux, RI-MP2 NMR, DLPNO-MP2 response
   Willem Van den Heuvel  : Paramagnetic NMR
   Boris Wezisla          : Elementary symmetry handling
   Frank Wennmohs         : Technical directorship


 We gratefully acknowledge several colleagues who have allowed us to
 interface, adapt or use parts of their codes:
   Stefan Grimme, W. Hujo, H. Kruse, P. Pracht,  : VdW corrections, initial TS optimization,
                  C. Bannwarth, S. Ehlert          DFT functionals, gCP, sTDA/sTD-DF
   Ed Valeev, F. Pavosevic, A. Kumar             : LibInt (2-el integral package), F12 methods
   Garnet Chan, S. Sharma, J. Yang, R. Olivares  : DMRG
   Ulf Ekstrom                                   : XCFun DFT Library
   Mihaly Kallay                                 : mrcc  (arbitrary order and MRCC methods)
   Jiri Pittner, Ondrej Demel                    : Mk-CCSD
   Frank Weinhold                                : gennbo (NPA and NBO analysis)
   Christopher J. Cramer and Donald G. Truhlar   : smd solvation model
   Lars Goerigk                                  : TD-DFT with DH, B97 family of functionals
   V. Asgeirsson, H. Jonsson                     : NEB implementation
   FAccTs GmbH                                   : IRC, NEB, NEB-TS, DLPNO-Multilevel, CI-OPT
                                                   MM, QMMM, 2- and 3-layer-ONIOM, Crystal-QMMM,
                                                   LR-CPCM, SF, NACMEs, symmetry and pop. for TD-DFT,
                                                   nearIR, NL-DFT gradient (VV10), updates on ESD,
                                                   ML-optimized integration grids
   S Lehtola, MJT Oliveira, MAL Marques          : LibXC Library
   Liviu Ungur et al                             : ANISO software


 Your calculation uses the libint2 library for the computation of 2-el integrals
 For citations please refer to: http://libint.valeyev.net

 Your ORCA version has been built with support for libXC version: 5.1.0
 For citations please refer to: https://tddft.org/programs/libxc/

 This ORCA versions uses:
   CBLAS   interface :  Fast vector & matrix operations
   LAPACKE interface :  Fast linear algebra routines
   Shared memory     :  Shared parallel matrices


================================================================================

cite the ECPs for Hf [Def2-ECP] as follows:
Ce-Yb(ecp-28): M. Dolg, H. Stoll, H.Preuss, J. Chem. Phys., 1989, 90, 1730-1734.
Y-Cd(ecp-28), Hf-Hg(ecp-46): D. Andrae,U. Haeussermann, M. Dolg, H. Stoll, H. Preuss, Theor. Chim. Acta, 1990, 77, 123-141.
In-Sb(ecp-28), Tl-Bi(ecp-46): B. Metz, H. Stoll, M. Dolg, J. Chem. Phys., 2000, 113, 2563-2569.
Te-Xe(ecp-28), Po-Rn(ecp-46): K. A. Peterson, D. Figgen, E. Goll, H. Stoll, M. Dolg, J. Chem. Phys., 2003, 119, 11113-11123.
Rb(ecp-28), Cs(ecp-46): T. Leininger, A. Nicklass, W. Kuechle, H. Stoll, M. Dolg, A. Bergner, Chem. Phys. Lett., 1996, 255, 274-280.
Sr(ecp-28), Ba(ecp-46): M. Kaupp, P. V. Schleyer, H. Stoll and H. Preuss, J. Chem. Phys., 1991, 94, 1360-1366.
La(ecp-46): M. Dolg, H. Stoll, A. Savin, H. Preuss, Theor. Chim. Acta, 1989, 75, 173-194.
Lu(ecp-28): X. Cao, M. Dolg, J. Chem. Phys., 2001, 115, 7348-7355.

ECP parameters for Hf [Def2-ECP] have been obtained from:
TURBOMOLE (7.0.2)

----- Orbital basis set information -----
Your calculation utilizes the basis: def2-SVPD
   F. Weigend and R. Ahlrichs, Phys. Chem. Chem. Phys. 7, 3297 (2005).
   D. Rappoport and F. Furche, J. Chem. Phys. 133 134105 (2010).

----- AuxJ basis set information -----
Your calculation utilizes the auxiliary basis: def2/J
   F. Weigend, Phys. Chem. Chem. Phys. 8, 1057 (2006).

================================================================================
                                        WARNINGS
                       Please study these warnings very carefully!
================================================================================


WARNING: Geometry Optimization
  ===> : Switching off AutoStart
         For restart on a previous wavefunction, please use MOREAD

INFO   : the flag for use of the SHARK integral package has been found!

================================================================================
                                       INPUT FILE
================================================================================
NAME = HfCO6.inp
|  1> !B3LYP def2-SVPD OPT FREQ TightSCF PAL8

|  2> 

|  3> %scf

|  4>   MaxIter 300

|  5> end

|  6> 

|  7> * xyz 0 1

|  8> Hf        -0.43733        0.82114       -0.00327

|  9> C          1.85069        0.75179       -0.21043

| 10> C         -0.36713        3.11851        0.00002

| 11> C         -2.72538        0.89099        0.20388

| 12> C         -0.50743       -1.47623       -0.00656

| 13> O         -0.33267        4.24599        0.00163

| 14> O          2.97368        0.71783       -0.31146

| 15> O         -0.54180       -2.60370       -0.00817

| 16> O         -3.84828        0.92536        0.30489

| 17> C         -0.64818        0.83067       -2.29202

| 18> C         -0.22660        0.81111        2.28546

| 19> O         -0.75232        0.83529       -3.41517

| 20> O         -0.12255        0.80608        3.40866

| 21> **                         ****END OF INPUT****
================================================================================

                       *****************************
                       * Geometry Optimization Run *
                       *****************************

Geometry optimization settings:
Update method            Update   .... BFGS
Choice of coordinates    CoordSys .... Z-matrix Internals
Initial Hessian          InHess   .... Almoef's Model

Convergence Tolerances:
Energy Change            TolE     ....  5.0000e-06 Eh
Max. Gradient            TolMAXG  ....  3.0000e-04 Eh/bohr
RMS Gradient             TolRMSG  ....  1.0000e-04 Eh/bohr
Max. Displacement        TolMAXD  ....  4.0000e-03 bohr
RMS Displacement         TolRMSD  ....  2.0000e-03 bohr
Strict Convergence                ....  False
------------------------------------------------------------------------------
                        ORCA OPTIMIZATION COORDINATE SETUP
------------------------------------------------------------------------------

The optimization will be done in new redundant internal coordinates
Making redundant internal coordinates   ...  (new redundants) done
Evaluating the initial hessian          ...  (Almloef) done
Evaluating the coordinates              ...  done
Calculating the B-matrix                .... done
Calculating the G-matrix                .... done
Diagonalizing the G-matrix              .... done
The first mode is                       ....    3
The number of degrees of freedom        ....   33

    -----------------------------------------------------------------
                    Redundant Internal Coordinates


    -----------------------------------------------------------------
         Definition                    Initial Value    Approx d2E/dq
    -----------------------------------------------------------------
      1. B(C   1,Hf  0)                  2.2984         0.051684   
      2. B(C   2,Hf  0)                  2.2984         0.051680   
      3. B(C   3,Hf  0)                  2.2985         0.051675   
      4. B(C   4,Hf  0)                  2.2984         0.051681   
      5. B(O   5,C   2)                  1.1280         1.465101   
      6. B(O   6,C   1)                  1.1280         1.464944   
      7. B(O   7,C   4)                  1.1280         1.465170   
      8. B(O   8,C   3)                  1.1280         1.465369   
      9. B(C   9,Hf  0)                  2.2985         0.051677   
     10. B(C  10,Hf  0)                  2.2984         0.051682   
     11. B(O  11,C   9)                  1.1280         1.465265   
     12. B(O  12,C  10)                  1.1280         1.465032   
     13. A(C   3,Hf  0,C   9)           89.9025         0.214951   
     14. A(C   2,Hf  0,C   9)           90.0047         0.214953   
     15. A(C   1,Hf  0,C  10)           89.9055         0.214958   
     16. A(C   4,Hf  0,C  10)           89.9920         0.214957   
     17. A(C   2,Hf  0,C  10)           90.0078         0.214956   
     18. A(C   4,Hf  0,C   9)           89.9955         0.214953   
     19. A(C   3,Hf  0,C  10)           90.0949         0.214954   
     20. A(C   3,Hf  0,C   4)           90.0082         0.214953   
     21. A(C   1,Hf  0,C   2)           89.9933         0.214957   
     22. A(C   2,Hf  0,C   3)           89.9942         0.214952   
     23. A(C   1,Hf  0,C   4)           90.0042         0.214957   
     24. A(C   1,Hf  0,C   9)           90.0971         0.214955   
     25. L(Hf  0,C   1,O   6,C  10, 1) 179.9673         0.340188   
     26. L(Hf  0,C   1,O   6,C  10, 2) 180.0057         0.340188   
     27. L(Hf  0,C   2,O   5,C   1, 2) 179.9997         0.340190   
     28. L(Hf  0,C   2,O   5,C   1, 1) 179.9996         0.340190   
     29. L(Hf  0,C   3,O   8,C   9, 2) 180.0064         0.340195   
     30. L(Hf  0,C   3,O   8,C   9, 1) 179.9670         0.340195   
     31. L(Hf  0,C   4,O   7,C  10, 2) 180.0023         0.340193   
     32. L(Hf  0,C   4,O   7,C  10, 1) 179.9996         0.340193   
     33. L(Hf  0,C   9,O  11,C   3, 2) 180.0055         0.340193   
     34. L(Hf  0,C   9,O  11,C   3, 1) 179.9662         0.340193   
     35. L(Hf  0,C  10,O  12,C   1, 2) 180.0063         0.340190   
     36. L(Hf  0,C  10,O  12,C   1, 1) 179.9678         0.340190   
    -----------------------------------------------------------------

Number of atoms                         .... 13
Number of degrees of freedom            .... 36

         *************************************************************
         *                GEOMETRY OPTIMIZATION CYCLE   1            *
         *************************************************************
---------------------------------
CARTESIAN COORDINATES (ANGSTROEM)
---------------------------------
  Hf    -0.437330    0.821140   -0.003270
  C      1.850690    0.751790   -0.210430
  C     -0.367130    3.118510    0.000020
  C     -2.725380    0.890990    0.203880
  C     -0.507430   -1.476230   -0.006560
  O     -0.332670    4.245990    0.001630
  O      2.973680    0.717830   -0.311460
  O     -0.541800   -2.603700   -0.008170
  O     -3.848280    0.925360    0.304890
  C     -0.648180    0.830670   -2.292020
  C     -0.226600    0.811110    2.285460
  O     -0.752320    0.835290   -3.415170
  O     -0.122550    0.806080    3.408660

----------------------------
CARTESIAN COORDINATES (A.U.)
----------------------------
  NO LB      ZA    FRAG     MASS         X           Y           Z
   0 Hf   12.0000*   0   178.490   -0.826434    1.551730   -0.006179
   1 C     6.0000    0    12.011    3.497297    1.420677   -0.397655
   2 C     6.0000    0    12.011   -0.693775    5.893130    0.000038
   3 C     6.0000    0    12.011   -5.150222    1.683727    0.385277
   4 C     6.0000    0    12.011   -0.958904   -2.789670   -0.012397
   5 O     8.0000    0    15.999   -0.628655    8.023758    0.003080
   6 O     8.0000    0    15.999    5.619441    1.356502   -0.588574
   7 O     8.0000    0    15.999   -1.023854   -4.920280   -0.015439
   8 O     8.0000    0    15.999   -7.272195    1.748677    0.576159
   9 C     6.0000    0    12.011   -1.224883    1.569739   -4.331290
  10 C     6.0000    0    12.011   -0.428212    1.532776    4.318893
  11 O     8.0000    0    15.999   -1.421679    1.578469   -6.453736
  12 O     8.0000    0    15.999   -0.231586    1.523270    6.441434
* core charge reduced due to ECP

--------------------------------
INTERNAL COORDINATES (ANGSTROEM)
--------------------------------
 Hf     0   0   0     0.000000000000     0.00000000     0.00000000
 C      1   0   0     2.298425593423     0.00000000     0.00000000
 C      1   2   0     2.298444643884    89.99333164     0.00000000
 C      1   2   3     2.298469696885   179.98755957     1.69360706
 C      1   2   3     2.298441591818    90.00418684   180.00022447
 O      3   1   2     1.128007639203   179.99953259    25.06024110
 O      2   1   3     1.128036738143   179.96705257    83.02433160
 O      5   1   2     1.127994897994   179.99832515    13.22061986
 O      4   1   2     1.127957768270   179.96666714    80.51700504
 C      1   2   3     2.298461464959    90.09709529    90.00473603
 C      1   2   3     2.298432671779    89.90546033   269.99218602
 O     10   1   2     1.127977130309   179.96597053   173.40112571
 O     11   1   2     1.128020364798   179.96748502   352.06131053

---------------------------
INTERNAL COORDINATES (A.U.)
---------------------------
 Hf     0   0   0     0.000000000000     0.00000000     0.00000000
 C      1   0   0     4.343394910764     0.00000000     0.00000000
 C      1   2   0     4.343430910919    89.99333164     0.00000000
 C      1   2   3     4.343478254230   179.98755957     1.69360706
 C      1   2   3     4.343425143351    90.00418684   180.00022447
 O      3   1   2     2.131625515064   179.99953259    25.06024110
 O      2   1   3     2.131680504092   179.96705257    83.02433160
 O      5   1   2     2.131601437669   179.99832515    13.22061986
 O      4   1   2     2.131531272659   179.96666714    80.51700504
 C      1   2   3     4.343462698143    90.09709529    90.00473603
 C      1   2   3     4.343408286919    89.90546033   269.99218602
 O     10   1   2     2.131567861610   179.96597053   173.40112571
 O     11   1   2     2.131649562955   179.96748502   352.06131053

---------------------
BASIS SET INFORMATION
---------------------
There are 3 groups of distinct atoms

 Group   1 Type Hf  : 7s7p5d1f contracted to 6s4p2d1f pattern {211111/4111/41/1}
 Group   2 Type C   : 8s4p2d contracted to 4s2p2d pattern {5111/31/11}
 Group   3 Type O   : 8s5p2d contracted to 4s3p2d pattern {5111/311/11}

Atom   0Hf   basis set group =>   1
Atom   1C    basis set group =>   2
Atom   2C    basis set group =>   2
Atom   3C    basis set group =>   2
Atom   4C    basis set group =>   2
Atom   5O    basis set group =>   3
Atom   6O    basis set group =>   3
Atom   7O    basis set group =>   3
Atom   8O    basis set group =>   3
Atom   9C    basis set group =>   2
Atom  10C    basis set group =>   2
Atom  11O    basis set group =>   3
Atom  12O    basis set group =>   3
---------------------------------
AUXILIARY/J BASIS SET INFORMATION
---------------------------------
There are 3 groups of distinct atoms

 Group   1 Type Hf  : 11s5p5d3f3g contracted to 8s5p5d2f3g pattern {41111111/11111/11111/21/111}
 Group   2 Type C   : 12s5p4d2f1g contracted to 6s4p3d1f1g pattern {711111/2111/211/2/1}
 Group   3 Type O   : 12s5p4d2f1g contracted to 6s4p3d1f1g pattern {711111/2111/211/2/1}

Atom   0Hf   basis set group =>   1
Atom   1C    basis set group =>   2
Atom   2C    basis set group =>   2
Atom   3C    basis set group =>   2
Atom   4C    basis set group =>   2
Atom   5O    basis set group =>   3
Atom   6O    basis set group =>   3
Atom   7O    basis set group =>   3
Atom   8O    basis set group =>   3
Atom   9C    basis set group =>   2
Atom  10C    basis set group =>   2
Atom  11O    basis set group =>   3
Atom  12O    basis set group =>   3
-------------------------
ECP PARAMETER INFORMATION
-------------------------

 Group 1, Type Hf ECP Def2-ECP (replacing 60 core electrons, lmax=3)

Atom   0Hf   ECP group =>   1



           ************************************************************
           *        Program running with 8 parallel MPI-processes     *
           *              working on a common directory               *
           ************************************************************
------------------------------------------------------------------------------
                           ORCA GTO INTEGRAL CALCULATION
                           -- RI-GTO INTEGRALS CHOSEN --
------------------------------------------------------------------------------
------------------------------------------------------------------------------
                   ___                                                        
                  /   \      - P O W E R E D   B Y -                         
                 /     \                                                     
                 |  |  |   _    _      __       _____    __    __             
                 |  |  |  | |  | |    /  \     |  _  \  |  |  /  |          
                  \  \/   | |  | |   /    \    | | | |  |  | /  /          
                 / \  \   | |__| |  /  /\  \   | |_| |  |  |/  /          
                |  |  |   |  __  | /  /__\  \  |    /   |      \           
                |  |  |   | |  | | |   __   |  |    \   |  |\   \          
                \     /   | |  | | |  |  |  |  | |\  \  |  | \   \       
                 \___/    |_|  |_| |__|  |__|  |_| \__\ |__|  \__/        
                                                                              
                      - O R C A' S   B I G   F R I E N D -                    
                                      &                                       
                       - I N T E G R A L  F E E D E R -                       
                                                                              
 v1 FN, 2020, v2 2021                                                         
------------------------------------------------------------------------------


Reading SHARK input file HfCO6.SHARKINP.tmp ... ok
----------------------
SHARK INTEGRAL PACKAGE
----------------------

Number of atoms                             ...     13
Number of basis functions                   ...    293
Number of shells                            ...    115
Maximum angular momentum                    ...      3
Integral batch strategy                     ... SHARK/LIBINT Hybrid
RI-J (if used) integral strategy            ... SPLIT-RIJ (Revised 2003 algorithm where possible)
Printlevel                                  ...      1
Contraction scheme used                     ... SEGMENTED contraction
Coulomb Range Separation                    ... NOT USED
Exchange Range Separation                   ... NOT USED
Finite Nucleus Model                        ... NOT USED
Auxiliary Coulomb fitting basis             ... AVAILABLE
   # of basis functions in Aux-J            ...    677
   # of shells in Aux-J                     ...    203
   Maximum angular momentum in Aux-J        ...      4
Auxiliary J/K fitting basis                 ... NOT available
Auxiliary Correlation fitting basis         ... NOT available
Auxiliary 'external' fitting basis          ... NOT available
Integral threshold                          ...     2.500000e-11
Primitive cut-off                           ...     2.500000e-12
Primitive pair pre-selection threshold      ...     2.500000e-12

Calculating pre-screening integrals         ... done (  0.1 sec) Dimension = 115
Organizing shell pair data                  ... done (  0.1 sec)
Shell pair information
Total number of shell pairs                 ...      6670
Shell pairs after pre-screening             ...      6025
Total number of primitive shell pairs       ...     19084
Primitive shell pairs kept                  ...     13039
          la=0 lb=0:   1272 shell pairs
          la=1 lb=0:   1662 shell pairs
          la=1 lb=1:    568 shell pairs
          la=2 lb=0:   1242 shell pairs
          la=2 lb=1:    836 shell pairs
          la=2 lb=2:    330 shell pairs
          la=3 lb=0:     54 shell pairs
          la=3 lb=1:     34 shell pairs
          la=3 lb=2:     26 shell pairs
          la=3 lb=3:      1 shell pairs

Calculating one electron integrals          ... done (  0.0 sec)
Calculating ECP integrals                   ... done (  0.7 sec)
Calculating RI/J V-Matrix + Cholesky decomp.... done (  0.1 sec)
Calculating Nuclear repulsion               ... done (  0.0 sec) ENN=    679.356281637222 Eh

SHARK setup successfully completed in   1.1 seconds

Maximum memory used throughout the entire GTOINT-calculation: 17.9 MB


           ************************************************************
           *        Program running with 8 parallel MPI-processes     *
           *              working on a common directory               *
           ************************************************************
-------------------------------------------------------------------------------
                                 ORCA SCF
-------------------------------------------------------------------------------

------------
SCF SETTINGS
------------
Hamiltonian:
 Density Functional     Method          .... DFT(GTOs)
 Exchange Functional    Exchange        .... B88
   X-Alpha parameter    XAlpha          ....  0.666667
   Becke's b parameter  XBeta           ....  0.004200
 Correlation Functional Correlation     .... LYP
 LDA part of GGA corr.  LDAOpt          .... VWN-5
 Gradients option       PostSCFGGA      .... off
 Hybrid DFT is turned on
   Fraction HF Exchange ScalHFX         ....  0.200000
   Scaling of DF-GGA-X  ScalDFX         ....  0.720000
   Scaling of DF-GGA-C  ScalDFC         ....  0.810000
   Scaling of DF-LDA-C  ScalLDAC        ....  1.000000
   Perturbative correction              ....  0.000000
   Density functional embedding theory  .... OFF
   NL short-range parameter             ....  4.800000
 RI-approximation to the Coulomb term is turned on
   Number of AuxJ basis functions       .... 677
   RIJ-COSX (HFX calculated with COS-X)).... on


General Settings:
 Integral files         IntName         .... HfCO6
 Hartree-Fock type      HFTyp           .... RHF
 Total Charge           Charge          ....    0
 Multiplicity           Mult            ....    1
 Number of Electrons    NEL             ....   96
 Basis Dimension        Dim             ....  293
 Nuclear Repulsion      ENuc            ....    679.3562816372 Eh

Convergence Acceleration:
 DIIS                   CNVDIIS         .... on
   Start iteration      DIISMaxIt       ....    12
   Startup error        DIISStart       ....  0.200000
   # of expansion vecs  DIISMaxEq       ....     5
   Bias factor          DIISBfac        ....   1.050
   Max. coefficient     DIISMaxC        ....  10.000
 Trust-Rad. Augm. Hess. CNVTRAH         .... auto
   Auto Start mean grad. ratio tolernc. ....  1.125000
   Auto Start start iteration           ....    20
   Auto Start num. interpolation iter.  ....    10
   Max. Number of Micro iterations      ....    16
   Max. Number of Macro iterations      .... Maxiter - #DIIS iter
   Number of Davidson start vectors     ....     2
   Converg. threshold I  (grad. norm)   ....   1.000e-05
   Converg. threshold II (energy diff.) ....   1.000e-08
   Grad. Scal. Fac. for Micro threshold ....   0.100
   Minimum threshold for Micro iter.    ....   0.010
   NR start threshold (gradient norm)   ....   0.001
   Initial trust radius                 ....   0.400
   Minimum AH scaling param. (alpha)    ....   1.000
   Maximum AH scaling param. (alpha)    .... 1000.000
   Orbital update algorithm             .... Taylor
   White noise on init. David. guess    .... on
   Maximum white noise                  ....   0.010
   Quad. conv. algorithm                .... NR
 SOSCF                  CNVSOSCF        .... off
 Level Shifting         CNVShift        .... on
   Level shift para.    LevelShift      ....    0.2500
   Turn off err/grad.   ShiftErr        ....    0.0010
 Zerner damping         CNVZerner       .... off
 Static damping         CNVDamp         .... on
   Fraction old density DampFac         ....    0.7000
   Max. Damping (<1)    DampMax         ....    0.9800
   Min. Damping (>=0)   DampMin         ....    0.0000
   Turn off err/grad.   DampErr         ....    0.1000
 Fernandez-Rico         CNVRico         .... off

SCF Procedure:
 Maximum # iterations   MaxIter         ....   300
 SCF integral mode      SCFMode         .... Direct
   Integral package                     .... SHARK and LIBINT hybrid scheme
 Reset frequency        DirectResetFreq ....    20
 Integral Threshold     Thresh          ....  2.500e-11 Eh
 Primitive CutOff       TCut            ....  2.500e-12 Eh

Convergence Tolerance:
 Convergence Check Mode ConvCheckMode   .... Total+1el-Energy
 Convergence forced     ConvForced      .... 0
 Energy Change          TolE            ....  1.000e-08 Eh
 1-El. energy change                    ....  1.000e-05 Eh
 DIIS Error             TolErr          ....  5.000e-07


Diagonalization of the overlap matrix:
Smallest eigenvalue                        ... 4.230e-05
Time for diagonalization                   ...    0.017 sec
Threshold for overlap eigenvalues          ... 1.000e-08
Number of eigenvalues below threshold      ... 0
Time for construction of square roots      ...    0.040 sec
Total time needed                          ...    0.058 sec

Time for model grid setup =    0.133 sec

------------------------------
INITIAL GUESS: MODEL POTENTIAL
------------------------------
Loading Hartree-Fock densities                     ... done
  calling C:\orca_5_0_4\orca HfCO6_atom72.inp > HfCO6_atom72.out in order to generate an atomic fitting density for atom 0 (Hf with ECP) on-the-fly... 
    atom 0 (Hf), assumed electronic state with S=3: 1s2 2s2 2p6 3s2 3p6 4s2 3d10 4p6 5s2 4d10 5p6 6s2 4f14 5d2           ... done
Calculating cut-offs                               ... done
Initializing the effective Hamiltonian             ... done
Setting up the integral package (SHARK)            ... done
Starting the Coulomb interaction                   ... done (   0.1 sec)
Reading the grid                                   ... done
Mapping shells                                     ... done
Starting the XC term evaluation                    ... done (   0.1 sec)
  promolecular density results
     # of electrons  =    156.003855421
     EX              =   -390.362811814
     EC              =     -6.850133312
     EX+EC           =   -397.212945126
Transforming the Hamiltonian                       ... done (   0.0 sec)
Diagonalizing the Hamiltonian                      ... done (   0.0 sec)
Back transforming the eigenvectors                 ... done (   0.0 sec)
Now organizing SCF variables                       ... done
                      ------------------
                      INITIAL GUESS DONE (   2.3 sec)
                      ------------------
-------------------
DFT GRID GENERATION
-------------------

General Integration Accuracy     IntAcc      ... 4.388
Radial Grid Type                 RadialGrid  ... OptM3 with GC (2021)
Angular Grid (max. ang.)         AngularGrid ... 4 (Lebedev-302)
Angular grid pruning method      GridPruning ... 4 (adaptive)
Weight generation scheme         WeightScheme... Becke
Basis function cutoff            BFCut       ... 1.0000e-11
Integration weight cutoff        WCut        ... 1.0000e-14
Angular grids for H and He will be reduced by one unit
Partially contracted basis set               ... off
Rotationally invariant grid construction     ... off

Total number of grid points                  ...    86112
Total number of batches                      ...     1353
Average number of points per batch           ...       63
Average number of grid points per atom       ...     6624
Time for grid setup =    0.609 sec

--------------------
COSX GRID GENERATION
--------------------

GRIDX 1
-------
General Integration Accuracy     IntAcc      ... 3.816
Radial Grid Type                 RadialGrid  ... OptM3 with GC (2021)
Angular Grid (max. ang.)         AngularGrid ... 1 (Lebedev-50)
Angular grid pruning method      GridPruning ... 4 (adaptive)
Weight generation scheme         WeightScheme... Becke
Basis function cutoff            BFCut       ... 1.0000e-11
Integration weight cutoff        WCut        ... 1.0000e-14
Angular grids for H and He will be reduced by one unit
Partially contracted basis set               ... on
Rotationally invariant grid construction     ... off

Total number of grid points                  ...    10572
Total number of batches                      ...      172
Average number of points per batch           ...       61
Average number of grid points per atom       ...      813
UseSFitting                                  ... on

GRIDX 2
-------
General Integration Accuracy     IntAcc      ... 4.020
Radial Grid Type                 RadialGrid  ... OptM3 with GC (2021)
Angular Grid (max. ang.)         AngularGrid ... 2 (Lebedev-110)
Angular grid pruning method      GridPruning ... 4 (adaptive)
Weight generation scheme         WeightScheme... Becke
Basis function cutoff            BFCut       ... 1.0000e-11
Integration weight cutoff        WCut        ... 1.0000e-14
Angular grids for H and He will be reduced by one unit
Partially contracted basis set               ... on
Rotationally invariant grid construction     ... off

Total number of grid points                  ...    27989
Total number of batches                      ...      444
Average number of points per batch           ...       63
Average number of grid points per atom       ...     2153
UseSFitting                                  ... on

GRIDX 3
-------
General Integration Accuracy     IntAcc      ... 4.338
Radial Grid Type                 RadialGrid  ... OptM3 with GC (2021)
Angular Grid (max. ang.)         AngularGrid ... 3 (Lebedev-194)
Angular grid pruning method      GridPruning ... 4 (adaptive)
Weight generation scheme         WeightScheme... Becke
Basis function cutoff            BFCut       ... 1.0000e-11
Integration weight cutoff        WCut        ... 1.0000e-14
Angular grids for H and He will be reduced by one unit
Partially contracted basis set               ... on
Rotationally invariant grid construction     ... off

Total number of grid points                  ...    59748
Total number of batches                      ...      939
Average number of points per batch           ...       63
Average number of grid points per atom       ...     4596
UseSFitting                                  ... on

Time for X-Grid setup             =    0.867 sec

--------------
SCF ITERATIONS
--------------
ITER       Energy         Delta-E        Max-DP      RMS-DP      [F,P]     Damp
               ***  Starting incremental Fock matrix formation  ***
  0   -725.9650492978   0.000000000000 0.77039717  0.00766919  0.4610195 0.7000
  1   -726.5789912088  -0.613941910965 0.54435337  0.00514714  0.2311970 0.7000
                               ***Turning on DIIS***
  2   -726.8110956556  -0.232104446798 0.34661223  0.00334180  0.1377104 0.7000
  3   -726.9129898785  -0.101894222939 0.60253024  0.00751844  0.0891392 0.0000
  4   -727.1298843397  -0.216894461207 0.08696987  0.00116190  0.0713938 0.0000
  5   -727.1570923201  -0.027207980389 0.04817169  0.00046909  0.0310568 0.0000
  6   -727.1610218019  -0.003929481764 0.01362881  0.00020150  0.0124713 0.0000
  7   -727.1621224516  -0.001100649676 0.00982478  0.00016634  0.0025670 0.0000
  8   -727.1622405088  -0.000118057219 0.00454596  0.00006529  0.0013396 0.0000
  9   -727.1622935625  -0.000053053731 0.00193057  0.00003343  0.0012546 0.0000
 10   -727.1623309687  -0.000037406209 0.00181865  0.00002473  0.0012492 0.0000
 11   -727.1623651274  -0.000034158674 0.00162334  0.00002220  0.0012801 0.0000
 12   -727.1623971579  -0.000032030486 0.00146661  0.00001992  0.0013055 0.0000
 13   -727.1624268843  -0.000029726376 0.00124777  0.00001701  0.0013287 0.0000
 14   -727.1624525682  -0.000025683958 0.00109546  0.00001523  0.0013490 0.0000
 15   -727.1624756229  -0.000023054676 0.00101023  0.00001498  0.0013674 0.0000
 16   -727.1624977800  -0.000022157069 0.00100271  0.00001557  0.0013820 0.0000
 17   -727.1625201468  -0.000022366854 0.00106894  0.00001784  0.0013975 0.0000
 18   -727.1625446013  -0.000024454540 0.00151244  0.00002543  0.0014171 0.0000
 19   -727.1625753704  -0.000030769017 0.00175809  0.00003100  0.0014435 0.0000
               *** Restarting incremental Fock matrix formation ***
                                   *** Resetting DIIS ***

 WARNING: the maximum gradient error descreased on average only by a factor   1.0
          during the last 20 iterations

                      *** Initiating the TRAH-SCF procedure ***


TRAH GRIDX
----------

General Integration Accuracy     IntAcc      ... 3.067
Radial Grid Type                 RadialGrid  ... OptM3 with GC (2021)
Angular Grid (max. ang.)         AngularGrid ... 1 (Lebedev-50)
Angular grid pruning method      GridPruning ... 4 (adaptive)
Weight generation scheme         WeightScheme... Becke
Basis function cutoff            BFCut       ... 1.0000e-11
Integration weight cutoff        WCut        ... 1.0000e-14
Angular grids for H and He will be reduced by one unit
Partially contracted basis set               ... on
Rotationally invariant grid construction     ... off

Total number of grid points                  ...     6056
Total number of batches                      ...       99
Average number of points per batch           ...       61
Average number of grid points per atom       ...      466


TRAH GRID
---------

General Integration Accuracy     IntAcc      ... 3.467
Radial Grid Type                 RadialGrid  ... OptM3 with GC (2021)
Angular Grid (max. ang.)         AngularGrid ... 1 (Lebedev-50)
Angular grid pruning method      GridPruning ... 4 (adaptive)
Weight generation scheme         WeightScheme... Becke
Basis function cutoff            BFCut       ... 1.0000e-11
Integration weight cutoff        WCut        ... 1.0000e-14
Angular grids for H and He will be reduced by one unit
Partially contracted basis set               ... off
Rotationally invariant grid construction     ... off

Total number of grid points                  ...    16762
Total number of batches                      ...      267
Average number of points per batch           ...       62
Average number of grid points per atom       ...     1289

 --------------------------------------------------------------------------------------------
   Iter.        energy            ||Error||_2        Shift      TRadius  Mac/Mic        Rej.
 --------------------------------------------------------------------------------------------
    0       -727.162689142520     7.374923e-03                     0.400 (TRAH MAcro)   No
    0     dE    -4.309122e-05     6.649671e-02    -8.6171e-05      0.012 (TRAH MIcro)
    0     dE    -3.460553e-03     2.567322e-01    -2.5786e-02      0.400 (TRAH MIcro)
    0     dE    -4.299088e-03     7.595004e-02    -3.6204e-02      0.400 (TRAH MIcro)
    0     dE    -4.386153e-03     2.851042e-02    -3.7260e-02      0.400 (TRAH MIcro)
    0     dE    -4.407184e-03     9.111675e-03    -3.7520e-02      0.400 (TRAH MIcro)
    0     dE    -4.414057e-03     1.224776e-02    -3.7615e-02      0.400 (TRAH MIcro)
    0     dE    -4.424171e-03     1.254133e-02    -3.7797e-02      0.400 (TRAH MIcro)
    0     dE    -4.443935e-03     7.413371e-03    -3.8318e-02      0.400 (TRAH MIcro)
    0     dE    -4.447716e-03     4.243308e-03    -3.8439e-02      0.400 (TRAH MIcro)
    0     dE    -4.448263e-03     9.125390e-04    -3.8459e-02      0.400 (TRAH MIcro)
    0     dE    -4.448305e-03     3.130871e-04    -3.8461e-02      0.400 (TRAH MIcro)
    1       -727.165819242392     5.628940e-02                     0.400 (TRAH MAcro)   No
    1     dE    -2.036778e-04     1.095200e-01    -4.0733e-04      0.007 (TRAH MIcro)
    1     dE    -6.487193e-04     6.256376e-02    -1.2933e-03      0.057 (TRAH MIcro)
    1     dE    -1.212875e-03     1.080382e-01    -2.3486e-03      0.181 (TRAH MIcro)
    1     dE    -1.738669e-03     3.358977e-02    -3.1831e-03      0.304 (TRAH MIcro)
    1     dE    -1.897023e-03     1.446598e-02    -3.4060e-03      0.338 (TRAH MIcro)
    1     dE    -1.929968e-03     1.342479e-02    -3.4485e-03      0.345 (TRAH MIcro)
    1     dE    -1.948740e-03     1.328838e-02    -3.4714e-03      0.350 (TRAH MIcro)
    1     dE    -1.994947e-03     1.203264e-02    -3.5227e-03      0.364 (TRAH MIcro)
    1     dE    -2.026370e-03     8.569455e-03    -3.5543e-03      0.374 (TRAH MIcro)
    1     dE    -2.034391e-03     4.289032e-03    -3.5614e-03      0.377 (TRAH MIcro)
    2       -727.167367233316     3.774594e-02                     0.480 (TRAH MAcro)   No
    2     dE    -3.256272e-05     3.421510e-01    -6.5125e-05      0.002 (TRAH MIcro)
    2     dE    -1.749863e-04     1.603401e-02    -3.4985e-04      0.019 (TRAH MIcro)
    2     dE    -2.058300e-04     3.438157e-02    -4.1138e-04      0.026 (TRAH MIcro)
    2     dE    -2.202439e-04     2.843077e-02    -4.3986e-04      0.038 (TRAH MIcro)
    2     dE    -2.365425e-04     1.199348e-02    -4.7157e-04      0.057 (TRAH MIcro)
    2     dE    -2.461617e-04     4.529358e-03    -4.8994e-04      0.070 (TRAH MIcro)
    2     dE    -2.468805e-04     2.798440e-03    -4.9130e-04      0.071 (TRAH MIcro)
    3       -727.167620149741     3.185434e-03                     0.576 (TRAH MAcro)   No
    3     dE    -5.478662e-09     4.356890e-03    -1.0999e-08      0.000 (TRAH MIcro)
    3     dE    -7.546283e-07     1.660338e-03    -1.5093e-06      0.001 (TRAH MIcro)
    3     dE    -1.104602e-06     1.091748e-03    -2.2092e-06      0.002 (TRAH MIcro)
    3     dE    -1.286381e-06     1.490179e-03    -2.5727e-06      0.004 (TRAH MIcro)
    3     dE    -1.574839e-06     9.140900e-04    -3.1495e-06      0.007 (TRAH MIcro)
    3     dE    -1.655418e-06     5.620220e-04    -3.3106e-06      0.008 (TRAH MIcro)
    3     dE    -1.678008e-06     2.089299e-04    -3.3558e-06      0.008 (TRAH MIcro)
    4       -727.167621763052     2.120799e-04                           (NR   MAcro)
    4     dE    -2.903762e-09     8.232059e-05                           (NR   MIcro)
    4     dE    -3.471581e-09     3.447202e-05                           (NR   MIcro)
    4     dE    -3.660480e-09     2.125583e-05                           (NR   MIcro)
    4     dE    -3.750208e-09     2.263824e-05                           (NR   MIcro)
    4     dE    -3.867712e-09     2.205691e-05                           (NR   MIcro)
    4     dE    -3.910564e-09     1.263005e-05                           (NR   MIcro)
    4     dE    -3.929608e-09     4.866031e-06                           (NR   MIcro)
    4     dE    -3.930899e-09     1.198672e-06                           (NR   MIcro)
    4     dE    -3.930999e-09     2.984073e-07                           (NR   MIcro)
    5       -727.167621765407     5.343218e-07                           (NR   MAcro)

               *****************************************************
               *                     SUCCESS                       *
               *           SCF CONVERGED AFTER  70 CYCLES          *
               *****************************************************

Old exchange energy                            =    -17.031423831 Eh
New exchange energy                            =    -17.031447818 Eh
Exchange energy change after final integration =     -0.000023987 Eh
Total energy after final integration           =   -727.167645752 Eh
Final COS-X integration done in                =     4.431 sec

----------------
TOTAL SCF ENERGY
----------------

Total Energy       :         -727.16764575 Eh          -19787.23760 eV

Components:
Nuclear Repulsion  :          679.35628164 Eh           18486.22424 eV
Electronic Energy  :        -1406.52392739 Eh          -38273.46185 eV
One Electron Energy:        -2355.60602791 Eh          -64099.29876 eV
Two Electron Energy:          949.08210052 Eh           25825.83692 eV
Max COSX asymmetry :            0.00003529 Eh               0.00096 eV

Virial components:
Potential Energy   :        -1418.05769274 Eh          -38587.31156 eV
Kinetic Energy     :          690.89004699 Eh           18800.07396 eV
Virial Ratio       :            2.05250850


DFT components:
N(Alpha)           :       48.000127903113 electrons
N(Beta)            :       48.000127903113 electrons
N(Total)           :       96.000255806226 electrons
E(X)               :      -68.134346494977 Eh       
E(C)               :       -3.920337431712 Eh       
E(XC)              :      -72.054683926689 Eh       
DFET-embed. en.    :        0.000000000000 Eh       

---------------
SCF CONVERGENCE
---------------

  Last Energy change         ...   -2.3546e-09  Tolerance :   1.0000e-08
  Last Orbital Gradient      ...    5.3432e-07  Tolerance :   1.0000e-05
  Last Orbital Rotation      ...    2.1626e-04

             **** THE GBW FILE WAS UPDATED (HfCO6.gbw) ****
             **** DENSITY HfCO6.scfp WAS UPDATED ****
             **** ENERGY FILE WAS UPDATED (HfCO6.en.tmp) ****
             **** THE GBW FILE WAS UPDATED (HfCO6.gbw) ****
             **** DENSITY HfCO6.scfp WAS UPDATED ****
----------------
ORBITAL ENERGIES
----------------

  NO   OCC          E(Eh)            E(eV) 
   0   2.0000     -19.246207      -523.7159 
   1   2.0000     -19.246164      -523.7148 
   2   2.0000     -19.246161      -523.7147 
   3   2.0000     -19.246118      -523.7135 
   4   2.0000     -19.246105      -523.7131 
   5   2.0000     -19.246081      -523.7125 
   6   2.0000     -10.310929      -280.5746 
   7   2.0000     -10.310901      -280.5739 
   8   2.0000     -10.310879      -280.5733 
   9   2.0000     -10.310855      -280.5726 
  10   2.0000     -10.310824      -280.5718 
  11   2.0000     -10.310732      -280.5693 
  12   2.0000      -2.438930       -66.3667 
  13   2.0000      -1.295733       -35.2587 
  14   2.0000      -1.281325       -34.8666 
  15   2.0000      -1.281311       -34.8663 
  16   2.0000      -1.157330       -31.4925 
  17   2.0000      -1.157047       -31.4849 
  18   2.0000      -1.157026       -31.4843 
  19   2.0000      -1.157013       -31.4839 
  20   2.0000      -1.156967       -31.4827 
  21   2.0000      -1.156951       -31.4822 
  22   2.0000      -0.588038       -16.0013 
  23   2.0000      -0.575454       -15.6589 
  24   2.0000      -0.575416       -15.6579 
  25   2.0000      -0.573894       -15.6165 
  26   2.0000      -0.573755       -15.6127 
  27   2.0000      -0.573731       -15.6120 
  28   2.0000      -0.495649       -13.4873 
  29   2.0000      -0.489587       -13.3223 
  30   2.0000      -0.489561       -13.3216 
  31   2.0000      -0.489555       -13.3215 
  32   2.0000      -0.487198       -13.2573 
  33   2.0000      -0.485775       -13.2186 
  34   2.0000      -0.485750       -13.2179 
  35   2.0000      -0.483623       -13.1600 
  36   2.0000      -0.483608       -13.1597 
  37   2.0000      -0.482680       -13.1344 
  38   2.0000      -0.480840       -13.0843 
  39   2.0000      -0.480826       -13.0840 
  40   2.0000      -0.479915       -13.0591 
  41   2.0000      -0.450407       -12.2562 
  42   2.0000      -0.450380       -12.2555 
  43   2.0000      -0.420017       -11.4292 
  44   2.0000      -0.419161       -11.4060 
  45   2.0000      -0.419085       -11.4039 
  46   2.0000      -0.189009        -5.1432 
  47   2.0000      -0.188923        -5.1409 
  48   0.0000      -0.150580        -4.0975 
  49   0.0000      -0.074433        -2.0254 
  50   0.0000      -0.074373        -2.0238 
  51   0.0000      -0.072142        -1.9631 
  52   0.0000      -0.051043        -1.3890 
  53   0.0000      -0.049839        -1.3562 
  54   0.0000      -0.049749        -1.3537 
  55   0.0000      -0.016552        -0.4504 
  56   0.0000      -0.016165        -0.4399 
  57   0.0000      -0.016151        -0.4395 
  58   0.0000       0.002064         0.0562 
  59   0.0000       0.028748         0.7823 
  60   0.0000       0.031412         0.8548 
  61   0.0000       0.031437         0.8554 
  62   0.0000       0.049617         1.3501 
  63   0.0000       0.049642         1.3508 
  64   0.0000       0.067267         1.8304 
  65   0.0000       0.067279         1.8308 
  66   0.0000       0.067714         1.8426 
  67   0.0000       0.077081         2.0975 
  68   0.0000       0.077595         2.1115 
  69   0.0000       0.077622         2.1122 
  70   0.0000       0.092789         2.5249 
  71   0.0000       0.093047         2.5319 
  72   0.0000       0.093064         2.5324 
  73   0.0000       0.108224         2.9449 
  74   0.0000       0.110340         3.0025 
  75   0.0000       0.110355         3.0029 
  76   0.0000       0.113175         3.0796 
  77   0.0000       0.113261         3.0820 
  78   0.0000       0.115020         3.1299 
  79   0.0000       0.143190         3.8964 
  80   0.0000       0.152035         4.1371 
  81   0.0000       0.152060         4.1378 
  82   0.0000       0.153011         4.1636 
  83   0.0000       0.163589         4.4515 
  84   0.0000       0.163647         4.4531 
  85   0.0000       0.173173         4.7123 
  86   0.0000       0.173333         4.7166 
  87   0.0000       0.173643         4.7251 
  88   0.0000       0.188253         5.1226 
  89   0.0000       0.216043         5.8788 
  90   0.0000       0.217520         5.9190 
  91   0.0000       0.219583         5.9752 
  92   0.0000       0.219643         5.9768 
  93   0.0000       0.224154         6.0995 
  94   0.0000       0.227399         6.1878 
  95   0.0000       0.227434         6.1888 
  96   0.0000       0.267113         7.2685 
  97   0.0000       0.267129         7.2690 
  98   0.0000       0.278852         7.5880 
  99   0.0000       0.279474         7.6049 
 100   0.0000       0.279524         7.6062 
 101   0.0000       0.281599         7.6627 
 102   0.0000       0.281669         7.6646 
 103   0.0000       0.282138         7.6774 
 104   0.0000       0.321806         8.7568 
 105   0.0000       0.322201         8.7675 
 106   0.0000       0.323692         8.8081 
 107   0.0000       0.332431         9.0459 
 108   0.0000       0.332544         9.0490 
 109   0.0000       0.332566         9.0496 
 110   0.0000       0.355570         9.6755 
 111   0.0000       0.361046         9.8245 
 112   0.0000       0.361101         9.8261 
 113   0.0000       0.361114         9.8264 
 114   0.0000       0.361470         9.8361 
 115   0.0000       0.394871        10.7450 
 116   0.0000       0.448774        12.2118 
 117   0.0000       0.448908        12.2154 
 118   0.0000       0.449177        12.2227 
 119   0.0000       0.449244        12.2246 
 120   0.0000       0.449344        12.2273 
 121   0.0000       0.457433        12.4474 
 122   0.0000       0.457572        12.4512 
 123   0.0000       0.458417        12.4742 
 124   0.0000       0.462720        12.5912 
 125   0.0000       0.462768        12.5926 
 126   0.0000       0.464416        12.6374 
 127   0.0000       0.469585        12.7781 
 128   0.0000       0.470484        12.8025 
 129   0.0000       0.470655        12.8072 
 130   0.0000       0.513112        13.9625 
 131   0.0000       0.513254        13.9664 
 132   0.0000       0.514041        13.9878 
 133   0.0000       0.514113        13.9897 
 134   0.0000       0.523191        14.2367 
 135   0.0000       0.527584        14.3563 
 136   0.0000       0.527740        14.3605 
 137   0.0000       0.532133        14.4801 
 138   0.0000       0.532248        14.4832 
 139   0.0000       0.537914        14.6374 
 140   0.0000       0.538124        14.6431 
 141   0.0000       0.564541        15.3619 
 142   0.0000       0.565639        15.3918 
 143   0.0000       0.565819        15.3967 
 144   0.0000       0.575014        15.6469 
 145   0.0000       0.575198        15.6519 
 146   0.0000       0.576458        15.6862 
 147   0.0000       0.603064        16.4102 
 148   0.0000       0.603092        16.4110 
 149   0.0000       0.614475        16.7207 
 150   0.0000       0.614509        16.7216 
 151   0.0000       0.616489        16.7755 
 152   0.0000       0.617593        16.8056 
 153   0.0000       0.617871        16.8131 
 154   0.0000       0.634123        17.2554 
 155   0.0000       0.634132        17.2556 
 156   0.0000       0.635282        17.2869 
 157   0.0000       0.659557        17.9475 
 158   0.0000       0.659823        17.9547 
 159   0.0000       0.660173        17.9642 
 160   0.0000       0.688562        18.7367 
 161   0.0000       0.700571        19.0635 
 162   0.0000       0.700665        19.0661 
 163   0.0000       0.764317        20.7981 
 164   0.0000       0.764716        20.8090 
 165   0.0000       0.764734        20.8095 
 166   0.0000       0.789246        21.4765 
 167   0.0000       0.835939        22.7471 
 168   0.0000       0.836059        22.7503 
 169   0.0000       0.838474        22.8160 
 170   0.0000       0.859722        23.3942 
 171   0.0000       0.860007        23.4020 
 172   0.0000       0.868612        23.6361 
 173   0.0000       0.881874        23.9970 
 174   0.0000       0.901095        24.5200 
 175   0.0000       0.901132        24.5210 
 176   0.0000       0.901930        24.5428 
 177   0.0000       0.904339        24.6083 
 178   0.0000       0.904660        24.6170 
 179   0.0000       0.904762        24.6198 
 180   0.0000       0.905062        24.6280 
 181   0.0000       0.908282        24.7156 
 182   0.0000       0.919396        25.0180 
 183   0.0000       0.919693        25.0261 
 184   0.0000       0.920141        25.0383 
 185   0.0000       0.970510        26.4089 
 186   0.0000       0.975734        26.5511 
 187   0.0000       0.977878        26.6094 
 188   0.0000       0.978002        26.6128 
 189   0.0000       1.015508        27.6334 
 190   0.0000       1.058880        28.8136 
 191   0.0000       1.058918        28.8146 
 192   0.0000       1.088863        29.6295 
 193   0.0000       1.088974        29.6325 
 194   0.0000       1.097922        29.8760 
 195   0.0000       1.136591        30.9282 
 196   0.0000       1.136903        30.9367 
 197   0.0000       1.140955        31.0470 
 198   0.0000       1.200391        32.6643 
 199   0.0000       1.203713        32.7547 
 200   0.0000       1.203803        32.7572 
 201   0.0000       1.292122        35.1604 
 202   0.0000       1.292186        35.1622 
 203   0.0000       1.485991        40.4359 
 204   0.0000       1.494663        40.6718 
 205   0.0000       1.494906        40.6785 
 206   0.0000       1.496014        40.7086 
 207   0.0000       1.500053        40.8185 
 208   0.0000       1.500228        40.8233 
 209   0.0000       1.501529        40.8587 
 210   0.0000       1.510753        41.1097 
 211   0.0000       1.510803        41.1110 
 212   0.0000       1.512458        41.1561 
 213   0.0000       1.521360        41.3983 
 214   0.0000       1.521381        41.3989 
 215   0.0000       1.547680        42.1145 
 216   0.0000       1.548898        42.1477 
 217   0.0000       1.549143        42.1543 
 218   0.0000       1.566034        42.6140 
 219   0.0000       1.568253        42.6743 
 220   0.0000       1.568770        42.6884 
 221   0.0000       1.742517        47.4163 
 222   0.0000       1.748549        47.5804 
 223   0.0000       1.748582        47.5813 
 224   0.0000       1.748704        47.5847 
 225   0.0000       1.754149        47.7328 
 226   0.0000       1.757766        47.8312 
 227   0.0000       1.758102        47.8404 
 228   0.0000       1.767568        48.0980 
 229   0.0000       1.767618        48.0993 
 230   0.0000       1.775027        48.3009 
 231   0.0000       1.775158        48.3045 
 232   0.0000       1.775414        48.3115 
 233   0.0000       1.831052        49.8255 
 234   0.0000       1.843721        50.1702 
 235   0.0000       1.843779        50.1718 
 236   0.0000       1.858473        50.5716 
 237   0.0000       1.860968        50.6395 
 238   0.0000       1.861011        50.6407 
 239   0.0000       1.905400        51.8486 
 240   0.0000       1.905643        51.8552 
 241   0.0000       1.909123        51.9499 
 242   0.0000       1.911238        52.0074 
 243   0.0000       1.911271        52.0083 
 244   0.0000       1.913710        52.0747 
 245   0.0000       1.955998        53.2254 
 246   0.0000       1.959041        53.3082 
 247   0.0000       1.959269        53.3144 
 248   0.0000       1.985117        54.0178 
 249   0.0000       2.035793        55.3967 
 250   0.0000       2.037904        55.4542 
 251   0.0000       2.038548        55.4717 
 252   0.0000       2.096296        57.0431 
 253   0.0000       2.096335        57.0442 
 254   0.0000       2.179739        59.3137 
 255   0.0000       2.524354        68.6912 
 256   0.0000       2.524397        68.6923 
 257   0.0000       2.661877        72.4333 
 258   0.0000       2.767433        75.3057 
 259   0.0000       2.791939        75.9725 
 260   0.0000       2.791974        75.9735 
 261   0.0000       2.792102        75.9770 
 262   0.0000       2.799731        76.1845 
 263   0.0000       2.799902        76.1892 
 264   0.0000       2.800242        76.1985 
 265   0.0000       2.809272        76.4442 
 266   0.0000       2.809303        76.4450 
 267   0.0000       2.819965        76.7351 
 268   0.0000       2.820018        76.7366 
 269   0.0000       2.859458        77.8098 
 270   0.0000       2.892814        78.7175 
 271   0.0000       2.893989        78.7494 
 272   0.0000       2.894036        78.7507 
 273   0.0000       3.170297        86.2682 
 274   0.0000       3.170336        86.2692 
 275   0.0000       3.172643        86.3320 
 276   0.0000       3.184925        86.6662 
 277   0.0000       3.187321        86.7314 
 278   0.0000       3.187346        86.7321 
 279   0.0000       3.211329        87.3847 
 280   0.0000       3.211715        87.3952 
 281   0.0000       3.211791        87.3973 
 282   0.0000       3.214414        87.4687 
 283   0.0000       3.214437        87.4693 
 284   0.0000       3.215052        87.4860 
 285   0.0000       3.791689       103.1771 
 286   0.0000       3.791733       103.1783 
 287   0.0000       3.791768       103.1793 
 288   0.0000       3.809696       103.6671 
 289   0.0000       3.809784       103.6695 
 290   0.0000       3.809805       103.6701 
 291   0.0000      72.940988      1984.8252 
 292   0.0000     707.805977     19260.3798 

                    ********************************
                    * MULLIKEN POPULATION ANALYSIS *
                    ********************************

-----------------------
MULLIKEN ATOMIC CHARGES
-----------------------
   0 Hf:    0.261010
   1 C :    0.127025
   2 C :    0.127045
   3 C :    0.126992
   4 C :    0.127037
   5 O :   -0.169977
   6 O :   -0.170909
   7 O :   -0.169959
   8 O :   -0.170812
   9 C :    0.126988
  10 C :    0.127004
  11 O :   -0.170697
  12 O :   -0.170747
Sum of atomic charges:   -0.0000000

--------------------------------
MULLIKEN REDUCED ORBITAL CHARGES
--------------------------------
  0 Hfs       :     3.039313  s :     3.039313
      pz      :     1.965809  p :     5.902832
      px      :     1.969566
      py      :     1.967456
      dz2     :     0.523307  d :     2.733001
      dxz     :     0.586170
      dyz     :     0.502276
      dx2y2   :     0.498164
      dxy     :     0.623083
      f0      :     0.018922  f :     0.063844
      f+1     :     0.008459
      f-1     :     0.008491
      f+2     :     0.002712
      f-2     :     0.000077
      f+3     :     0.012339
      f-3     :     0.012845
  1 C s       :     3.542008  s :     3.542008
      pz      :     0.615851  p :     2.239814
      px      :     1.010382
      py      :     0.613580
      dz2     :     0.004285  d :     0.091153
      dxz     :     0.035217
      dyz     :     0.004149
      dx2y2   :     0.011848
      dxy     :     0.035655
  2 C s       :     3.542150  s :     3.542150
      pz      :     0.603911  p :     2.239297
      px      :     0.622574
      py      :     1.012812
      dz2     :     0.003465  d :     0.091509
      dxz     :     0.002356
      dyz     :     0.034911
      dx2y2   :     0.011409
      dxy     :     0.039369
  3 C s       :     3.542019  s :     3.542019
      pz      :     0.615806  p :     2.239829
      px      :     1.010436
      py      :     0.613587
      dz2     :     0.004283  d :     0.091160
      dxz     :     0.035215
      dyz     :     0.004153
      dx2y2   :     0.011846
      dxy     :     0.035662
  4 C s       :     3.542149  s :     3.542149
      pz      :     0.603891  p :     2.239303
      px      :     0.622588
      py      :     1.012825
      dz2     :     0.003463  d :     0.091511
      dxz     :     0.002357
      dyz     :     0.034909
      dx2y2   :     0.011409
      dxy     :     0.039373
  5 O s       :     3.769543  s :     3.769543
      pz      :     1.507562  p :     4.335458
      px      :     1.520222
      py      :     1.307674
      dz2     :     0.004437  d :     0.064976
      dxz     :     0.000049
      dyz     :     0.023599
      dx2y2   :     0.013308
      dxy     :     0.023584
  6 O s       :     3.770439  s :     3.770439
      pz      :     1.512194  p :     4.335514
      px      :     1.309262
      py      :     1.514058
      dz2     :     0.004698  d :     0.064957
      dxz     :     0.023412
      dyz     :     0.000244
      dx2y2   :     0.013148
      dxy     :     0.023456
  7 O s       :     3.769535  s :     3.769535
      pz      :     1.507552  p :     4.335447
      px      :     1.520220
      py      :     1.307675
      dz2     :     0.004434  d :     0.064977
      dxz     :     0.000049
      dyz     :     0.023600
      dx2y2   :     0.013310
      dxy     :     0.023583
  8 O s       :     3.770402  s :     3.770402
      pz      :     1.512140  p :     4.335448
      px      :     1.309282
      py      :     1.514026
      dz2     :     0.004698  d :     0.064962
      dxz     :     0.023412
      dyz     :     0.000244
      dx2y2   :     0.013153
      dxy     :     0.023455
  9 C s       :     3.542048  s :     3.542048
      pz      :     1.009467  p :     2.239721
      px      :     0.620261
      py      :     0.609994
      dz2     :     0.016082  d :     0.091243
      dxz     :     0.037413
      dyz     :     0.036921
      dx2y2   :    -0.001138
      dxy     :     0.001965
 10 C s       :     3.542037  s :     3.542037
      pz      :     1.009434  p :     2.239717
      px      :     0.620294
      py      :     0.609989
      dz2     :     0.016083  d :     0.091242
      dxz     :     0.037423
      dyz     :     0.036915
      dx2y2   :    -0.001138
      dxy     :     0.001960
 11 O s       :     3.770261  s :     3.770261
      pz      :     1.309206  p :     4.335475
      px      :     1.514407
      py      :     1.511862
      dz2     :     0.017878  d :     0.064961
      dxz     :     0.023147
      dyz     :     0.023425
      dx2y2   :     0.000281
      dxy     :     0.000229
 12 O s       :     3.770274  s :     3.770274
      pz      :     1.309192  p :     4.335515
      px      :     1.514454
      py      :     1.511869
      dz2     :     0.017875  d :     0.064958
      dxz     :     0.023147
      dyz     :     0.023425
      dx2y2   :     0.000281
      dxy     :     0.000229


                     *******************************
                     * LOEWDIN POPULATION ANALYSIS *
                     *******************************

----------------------
LOEWDIN ATOMIC CHARGES
----------------------
   0 Hf:    0.172418
   1 C :    0.093019
   2 C :    0.093169
   3 C :    0.093030
   4 C :    0.093168
   5 O :   -0.121741
   6 O :   -0.121837
   7 O :   -0.121729
   8 O :   -0.121762
   9 C :    0.092974
  10 C :    0.092963
  11 O :   -0.121814
  12 O :   -0.121857

-------------------------------
LOEWDIN REDUCED ORBITAL CHARGES
-------------------------------
  0 Hfs       :     2.049684  s :     2.049684
      pz      :     2.224817  p :     6.673587
      px      :     2.224155
      py      :     2.224615
      dz2     :     0.619268  d :     2.878842
      dxz     :     0.564714
      dyz     :     0.486438
      dx2y2   :     0.614814
      dxy     :     0.593607
      f0      :     0.068480  f :     0.225469
      f+1     :     0.029897
      f-1     :     0.029393
      f+2     :     0.007342
      f-2     :     0.000197
      f+3     :     0.044336
      f-3     :     0.045824
  1 C s       :     3.047212  s :     3.047212
      pz      :     0.600213  p :     2.292921
      px      :     1.095481
      py      :     0.597227
      dz2     :     0.062193  d :     0.566849
      dxz     :     0.165663
      dyz     :     0.011506
      dx2y2   :     0.163884
      dxy     :     0.163602
  2 C s       :     3.047210  s :     3.047210
      pz      :     0.590786  p :     2.292806
      px      :     0.603284
      py      :     1.098735
      dz2     :     0.061005  d :     0.566815
      dxz     :     0.007307
      dyz     :     0.161196
      dx2y2   :     0.165562
      dxy     :     0.171745
  3 C s       :     3.047197  s :     3.047197
      pz      :     0.600193  p :     2.292948
      px      :     1.095510
      py      :     0.597245
      dz2     :     0.062190  d :     0.566825
      dxz     :     0.165638
      dyz     :     0.011515
      dx2y2   :     0.163875
      dxy     :     0.163607
  4 C s       :     3.047205  s :     3.047205
      pz      :     0.590775  p :     2.292813
      px      :     0.603293
      py      :     1.098744
      dz2     :     0.061005  d :     0.566815
      dxz     :     0.007308
      dyz     :     0.161207
      dx2y2   :     0.165562
      dxy     :     0.171733
  5 O s       :     3.492079  s :     3.492079
      pz      :     1.400995  p :     4.412930
      px      :     1.413608
      py      :     1.598327
      dz2     :     0.031792  d :     0.216733
      dxz     :     0.000052
      dyz     :     0.043394
      dx2y2   :     0.095267
      dxy     :     0.046227
  6 O s       :     3.492101  s :     3.492101
      pz      :     1.408624  p :     4.412980
      px      :     1.596722
      py      :     1.407635
      dz2     :     0.031433  d :     0.216755
      dxz     :     0.046195
      dyz     :     0.000421
      dx2y2   :     0.094146
      dxy     :     0.044561
  7 O s       :     3.492072  s :     3.492072
      pz      :     1.400982  p :     4.412924
      px      :     1.413607
      py      :     1.598335
      dz2     :     0.031793  d :     0.216733
      dxz     :     0.000052
      dyz     :     0.043392
      dx2y2   :     0.095267
      dxy     :     0.046229
  8 O s       :     3.492063  s :     3.492063
      pz      :     1.408568  p :     4.412943
      px      :     1.596761
      py      :     1.407614
      dz2     :     0.031434  d :     0.216756
      dxz     :     0.046190
      dyz     :     0.000421
      dx2y2   :     0.094143
      dxy     :     0.044567
  9 C s       :     3.047200  s :     3.047200
      pz      :     1.094443  p :     2.292938
      px      :     0.603712
      py      :     0.594783
      dz2     :     0.216202  d :     0.566888
      dxz     :     0.168105
      dyz     :     0.165145
      dx2y2   :     0.010416
      dxy     :     0.007019
 10 C s       :     3.047207  s :     3.047207
      pz      :     1.094424  p :     2.292924
      px      :     0.603725
      py      :     0.594775
      dz2     :     0.216203  d :     0.566906
      dxz     :     0.168137
      dyz     :     0.165141
      dx2y2   :     0.010417
      dxy     :     0.007009
 11 O s       :     3.492070  s :     3.492070
      pz      :     1.596809  p :     4.412988
      px      :     1.411007
      py      :     1.405172
      dz2     :     0.124998  d :     0.216756
      dxz     :     0.047005
      dyz     :     0.043954
      dx2y2   :     0.000435
      dxy     :     0.000364
 12 O s       :     3.492090  s :     3.492090
      pz      :     1.596784  p :     4.413011
      px      :     1.411048
      py      :     1.405178
      dz2     :     0.124997  d :     0.216756
      dxz     :     0.047007
      dyz     :     0.043954
      dx2y2   :     0.000435
      dxy     :     0.000363


                      *****************************
                      * MAYER POPULATION ANALYSIS *
                      *****************************

  NA   - Mulliken gross atomic population
  ZA   - Total nuclear charge
  QA   - Mulliken gross atomic charge
  VA   - Mayer's total valence
  BVA  - Mayer's bonded valence
  FA   - Mayer's free valence

  ATOM       NA         ZA         QA         VA         BVA        FA
  0 Hf    11.7390    12.0000     0.2610     4.4322     4.4322    -0.0000
  1 C      5.8730     6.0000     0.1270     3.1872     3.1872    -0.0000
  2 C      5.8730     6.0000     0.1270     3.1923     3.1923    -0.0000
  3 C      5.8730     6.0000     0.1270     3.1872     3.1872     0.0000
  4 C      5.8730     6.0000     0.1270     3.1922     3.1922    -0.0000
  5 O      8.1700     8.0000    -0.1700     2.4542     2.4542    -0.0000
  6 O      8.1709     8.0000    -0.1709     2.4534     2.4534    -0.0000
  7 O      8.1700     8.0000    -0.1700     2.4542     2.4542    -0.0000
  8 O      8.1708     8.0000    -0.1708     2.4536     2.4536    -0.0000
  9 C      5.8730     6.0000     0.1270     3.1880     3.1880    -0.0000
 10 C      5.8730     6.0000     0.1270     3.1880     3.1880    -0.0000
 11 O      8.1707     8.0000    -0.1707     2.4536     2.4536    -0.0000
 12 O      8.1707     8.0000    -0.1707     2.4535     2.4535    -0.0000

  Mayer bond orders larger than 0.100000
B(  0-Hf,  1-C ) :   0.6241 B(  0-Hf,  2-C ) :   0.6273 B(  0-Hf,  3-C ) :   0.6239 
B(  0-Hf,  4-C ) :   0.6272 B(  0-Hf,  5-O ) :   0.1131 B(  0-Hf,  6-O ) :   0.1136 
B(  0-Hf,  7-O ) :   0.1131 B(  0-Hf,  8-O ) :   0.1137 B(  0-Hf,  9-C ) :   0.6246 
B(  0-Hf, 10-C ) :   0.6247 B(  0-Hf, 11-O ) :   0.1135 B(  0-Hf, 12-O ) :   0.1135 
B(  1-C ,  3-C ) :   0.2461 B(  1-C ,  6-O ) :   2.2854 B(  2-C ,  4-C ) :   0.2458 
B(  2-C ,  5-O ) :   2.2867 B(  3-C ,  8-O ) :   2.2856 B(  4-C ,  7-O ) :   2.2867 
B(  9-C , 10-C ) :   0.2460 B(  9-C , 11-O ) :   2.2855 B( 10-C , 12-O ) :   2.2854 


-------
TIMINGS
-------

Total SCF time: 0 days 0 hours 1 min 44 sec 

Total time                  ....     104.299 sec
Sum of individual times     ....     100.857 sec  ( 96.7%)

Fock matrix formation       ....      94.235 sec  ( 90.4%)
  Split-RI-J                ....      12.296 sec  ( 13.0% of F)
  Chain of spheres X        ....      61.617 sec  ( 65.4% of F)
  XC integration            ....      19.071 sec  ( 20.2% of F)
    Basis function eval.    ....       2.875 sec  ( 15.1% of XC)
    Density eval.           ....       7.522 sec  ( 39.4% of XC)
    XC-Functional eval.     ....       0.309 sec  (  1.6% of XC)
    XC-Potential eval.      ....       4.341 sec  ( 22.8% of XC)
Diagonalization             ....       0.970 sec  (  0.9%)
Density matrix formation    ....       0.122 sec  (  0.1%)
Population analysis         ....       0.081 sec  (  0.1%)
Initial guess               ....       2.187 sec  (  2.1%)
Orbital Transformation      ....       0.959 sec  (  0.9%)
Orbital Orthonormalization  ....       0.000 sec  (  0.0%)
DIIS solution               ....       0.691 sec  (  0.7%)
Grid generation             ....       1.609 sec  (  1.5%)

Maximum memory used throughout the entire SCF-calculation: 77.0 MB

-------------------------   --------------------
FINAL SINGLE POINT ENERGY      -727.167645752376
-------------------------   --------------------



           ************************************************************
           *        Program running with 8 parallel MPI-processes     *
           *              working on a common directory               *
           ************************************************************
------------------------------------------------------------------------------
                         ORCA SCF GRADIENT CALCULATION
------------------------------------------------------------------------------

 ... reading COSX grid (gridx3)
Gradient of the Kohn-Sham DFT energy:
Kohn-Sham wavefunction type      ... RKS
Hartree-Fock exchange scaling    ...    0.200
Number of operators              ...    1
Number of atoms                  ...   13
Basis set dimensions             ...  293
Integral neglect threshold       ... 2.5e-11
Integral primitive cutoff        ... 2.5e-12
SHARK Integral package           ... ON

Nuc. rep. gradient       (SHARK) ... done (  0.0 sec)
HCore & Overlap gradient (SHARK) ... done (  0.1 sec)
ECP gradient             (SHARK) ... done (  2.2 sec)
RI-J gradient            (SHARK) ... done (  0.9 sec)
COSX-gradient                    ... done (  5.3 sec)
Exchange-correlation gradient    ... done

------------------
CARTESIAN GRADIENT
------------------

   1   Hf  :    0.000000280   -0.000000945    0.000001116
   2   C   :    0.044218696   -0.005694904   -0.008281788
   3   C   :   -0.002494519    0.044993157    0.004768037
   4   C   :   -0.044398492    0.005717775    0.008289851
   5   C   :    0.002497093   -0.045021684   -0.004767113
   6   O   :   -0.001047700   -0.043405772   -0.000415373
   7   O   :   -0.043138188    0.001626307    0.004199555
   8   O   :    0.001045285    0.043436627    0.000415013
   9   O   :    0.043322088   -0.001647045   -0.004213683
  10   C   :    0.000024801   -0.004283650   -0.045255767
  11   C   :   -0.000045366    0.004264795    0.045160530
  12   O   :    0.003685963    0.000161001    0.043393099
  13   O   :   -0.003671233   -0.000145825   -0.043293130

Difference to translation invariance:
           :   -0.0000012918   -0.0000001636    0.0000003460

Difference to rotation invariance:
           :   -0.0000379947   -0.0002408634   -0.0005351780

Norm of the cartesian gradient     ...    0.1539430610
RMS gradient                       ...    0.0246506182
MAX gradient                       ...    0.0452557669

-------
TIMINGS
-------

Total SCF gradient time            ...       12.246 sec

One electron gradient       ....       2.268 sec  ( 18.5%)
RI-J Coulomb gradient       ....       0.911 sec  (  7.4%)
COSX gradient               ....       5.271 sec  ( 43.0%)
XC gradient                 ....       2.976 sec  ( 24.3%)

Maximum memory used throughout the entire SCFGRAD-calculation: 49.6 MB
------------------------------------------------------------------------------
                         ORCA GEOMETRY RELAXATION STEP
------------------------------------------------------------------------------

Reading the OPT-File                    .... done
Getting information on internals        .... done
Copying old internal coords+grads       .... done
Making the new internal coordinates     .... (new redundants).... done
Validating the new internal coordinates .... (new redundants).... done
Calculating the B-matrix                .... done
Calculating the G,G- and P matrices     .... done
Transforming gradient to internals      .... done
Projecting the internal gradient        .... done
Number of atoms                         ....  13
Number of internal coordinates          ....  36
Current Energy                          ....  -727.167645752 Eh
Current gradient norm                   ....     0.153943061 Eh/bohr
Maximum allowed component of the step   ....  0.300
Current trust radius                    ....  0.300
Evaluating the initial hessian          ....  (Almloef) done
Projecting the Hessian                  .... done
Forming the augmented Hessian           .... done
Diagonalizing the augmented Hessian     .... done
Last element of RFO vector              ....  0.987778469
Lowest eigenvalues of augmented Hessian:
 -0.011579159  0.051675953  0.051678036  0.051680383  0.051681679
Length of the computed step             ....  0.157792819
The final length of the internal step   ....  0.157792819
Converting the step to cartesian space:
 Initial RMS(Int)=    0.0262988032
Transforming coordinates:
 Iter   0:  RMS(Cart)=    0.0790619548 RMS(Int)=    0.0261325463
 Iter   1:  RMS(Cart)=    0.0011507259 RMS(Int)=    0.0006674753
 Iter   2:  RMS(Cart)=    0.0000234892 RMS(Int)=    0.0000221436
 Iter   3:  RMS(Cart)=    0.0000134852 RMS(Int)=    0.0000095707
 Iter   4:  RMS(Cart)=    0.0000071106 RMS(Int)=    0.0000049138
 Iter   5:  RMS(Cart)=    0.0000036536 RMS(Int)=    0.0000025258
 Iter   6:  RMS(Cart)=    0.0000018779 RMS(Int)=    0.0000012982
 Iter   7:  RMS(Cart)=    0.0000009653 RMS(Int)=    0.0000006673
 Iter   8:  RMS(Cart)=    0.0000004962 RMS(Int)=    0.0000003430
 Iter   9:  RMS(Cart)=    0.0000002551 RMS(Int)=    0.0000001763
 Iter  10:  RMS(Cart)=    0.0000001311 RMS(Int)=    0.0000000906
 Iter  11:  RMS(Cart)=    0.0000000674 RMS(Int)=    0.0000000466
done
Storing new coordinates                 .... done

                                .--------------------.
          ----------------------|Geometry convergence|-------------------------
          Item                value                   Tolerance       Converged
          ---------------------------------------------------------------------
          RMS gradient        0.0183974021            0.0001000000      NO
          MAX gradient        0.0435554633            0.0003000000      NO
          RMS step            0.0262988032            0.0020000000      NO
          MAX step            0.0369432607            0.0040000000      NO
          ........................................................
          Max(Bonds)      0.0156      Max(Angles)    2.12
          Max(Dihed)        0.00      Max(Improp)    0.00
          ---------------------------------------------------------------------

The optimization has not yet converged - more geometry cycles are needed


    ---------------------------------------------------------------------------
                         Redundant Internal Coordinates
                            (Angstroem and degrees)

        Definition                    Value    dE/dq     Step     New-Value
    ----------------------------------------------------------------------------
     1. B(C   1,Hf  0)                2.2984  0.001567 -0.0131    2.2853   
     2. B(C   2,Hf  0)                2.2984  0.001485 -0.0124    2.2860   
[...]
     20       0.014414  -0.004041   0.005096   0.155435   0.128587   0.015232
     21       0.087457  -0.050333  -0.086339   0.076937  -0.140692   0.015985
     22       0.283750  -0.355269   0.245656  -0.051977   0.001293   0.298934
     23      -0.090782   0.047809   0.138979   0.017091  -0.114224  -0.012362
     24       0.279133   0.249036  -0.083790   0.221281  -0.011250   0.282959
     25       0.068576   0.003207   0.084897  -0.108320   0.128637   0.006138
     26       0.016993  -0.002898  -0.005316  -0.154968  -0.128463  -0.014975
     27      -0.047635  -0.065110  -0.154172  -0.292711  -0.266702   0.116627
     28      -0.038416   0.063018   0.282989   0.195787  -0.248599  -0.106466
     29      -0.230017  -0.212331  -0.074897  -0.053209   0.019254   0.236212
     30      -0.051204  -0.067063   0.154670   0.293296   0.267107  -0.117364
     31      -0.036107   0.063382  -0.283798  -0.196061   0.248528   0.106574
     32      -0.223596  -0.211910   0.073672   0.051855  -0.019896  -0.236282
     33      -0.042454  -0.035293   0.022178   0.107671   0.131209   0.035588
     34       0.066301   0.009257  -0.118940  -0.061774   0.123547  -0.010716
     35      -0.213257  -0.228517  -0.178821  -0.186212  -0.014846   0.282386
     36      -0.039213  -0.034269  -0.022802  -0.108266  -0.131259  -0.035297
     37       0.063649   0.008569   0.119810   0.062430  -0.123398   0.010036
     38      -0.209381  -0.228833   0.177360   0.184854   0.015185  -0.282641
                 24         25         26         27         28         29    
      0       0.000713  -0.029086  -0.004930   0.004196   0.034455  -0.002991
      1       0.000024   0.035645  -0.000070   0.005770   0.011122  -0.029199
      2       0.000558   0.036309  -0.003812  -0.003012   0.016441   0.027116
      3       0.102203   0.034777   0.016844   0.018784   0.002792   0.006756
      4      -0.257516  -0.266994  -0.221380  -0.304721  -0.371864  -0.073611
      5      -0.276665  -0.275627   0.407204   0.042544  -0.308349   0.121951
      6      -0.217737   0.222547  -0.103246  -0.459697  -0.049372   0.259669
      7       0.139181  -0.070921   0.026335   0.022550   0.021038  -0.050581
      8       0.274597  -0.272751   0.104593  -0.248702   0.246526  -0.406712
      9      -0.103396   0.036176  -0.018805  -0.020437   0.005636  -0.000746
     10       0.245163  -0.266091   0.328383   0.237315  -0.354898   0.044343
     11       0.266087  -0.277212  -0.311571  -0.141196  -0.407519   0.049658
     12       0.218849   0.225853   0.092206   0.333409  -0.110016   0.401922
     13      -0.139337  -0.071047  -0.026895   0.000355   0.019551  -0.055957
     14      -0.272545  -0.269823  -0.126248   0.407595   0.151601  -0.304883
     15       0.088576  -0.090691   0.027268   0.165726   0.009184  -0.097354
     16       0.035289   0.040945  -0.018759  -0.025569  -0.042620   0.094120
     17      -0.108403   0.111448  -0.023697   0.089364  -0.093952   0.147926
     18       0.046227  -0.030515   0.014122  -0.027315  -0.079132   0.003770
     19       0.098921   0.108418   0.084712   0.099632   0.141591   0.031670
     20       0.100241   0.113117  -0.142111  -0.022696   0.121976  -0.052772
     21      -0.089194  -0.091998  -0.020942  -0.120324   0.034575  -0.147392
     22      -0.035450   0.041091   0.020438  -0.014509  -0.037176   0.098336
     23       0.107532   0.110295   0.033554  -0.148527  -0.063643   0.109613
     24      -0.049357  -0.029899   0.009334   0.008477  -0.082724   0.009869
     25      -0.094361   0.108330  -0.125748  -0.076429   0.131661  -0.008092
     26      -0.096240   0.114006   0.105785   0.062551   0.154003  -0.024308
     27       0.235828   0.254029  -0.327975   0.135336  -0.244485  -0.307792
     28      -0.249267  -0.273330  -0.311851   0.248769   0.208392   0.297583
     29      -0.155170  -0.092282   0.029004   0.004352   0.053861   0.070375
     30      -0.245264   0.251531   0.411102  -0.073009  -0.103197  -0.299196
     31       0.261492  -0.275109   0.205096  -0.278963   0.332470   0.232485
     32       0.156279  -0.090782  -0.049845  -0.014593   0.038443   0.060339
     33      -0.100578  -0.101591   0.112897  -0.060749   0.079789   0.108929
     34       0.098389   0.110833   0.120053  -0.080218  -0.082077  -0.102693
     35      -0.026931   0.052747  -0.007764  -0.005562  -0.068075  -0.091352
     36       0.103521  -0.100249  -0.140323   0.036628   0.028262   0.110048
     37      -0.102845   0.111239  -0.079678   0.088796  -0.126371  -0.083577
     38       0.023147   0.053111   0.036872   0.020940  -0.064490  -0.084368
                 30         31         32         33         34         35    
      0      -0.001311  -0.023816  -0.046446  -0.000002   0.000001   0.000040
      1       0.000145  -0.048955   0.001402   0.000001  -0.000003  -0.000338
      2      -0.000793   0.026926  -0.038487  -0.000001  -0.000002   0.000259
      3       0.016681  -0.023350   0.004900   0.160039   0.426186   0.015665
      4      -0.279305   0.355278  -0.147497   0.015899   0.049885   0.003174
      5       0.275620  -0.307242   0.217825   0.011282   0.022681  -0.000411
      6      -0.285562   0.037131   0.423347  -0.072350  -0.009160  -0.071849
      7       0.008619  -0.012772  -0.013405  -0.443669  -0.073639  -0.435469
      8      -0.238137  -0.046599   0.352364   0.069421   0.013908   0.068785
      9       0.017446  -0.024447   0.005199  -0.160988  -0.430811   0.015743
     10      -0.279816   0.355463  -0.147293  -0.016426  -0.051457   0.003222
     11       0.275841  -0.307404   0.218162  -0.011283  -0.022852  -0.000416
     12      -0.285725   0.037354   0.423742   0.072098   0.009430  -0.071289
     13       0.008339  -0.012811  -0.012479   0.444121   0.075741  -0.434105
     14      -0.238088  -0.046490   0.352062  -0.069967  -0.014299   0.069048
     15       0.096465  -0.009881  -0.149174   0.052947   0.008880   0.052556
     16      -0.003141   0.001032   0.004307   0.333746   0.055316   0.329588
     17       0.080458   0.012407  -0.123954  -0.051207  -0.008410  -0.050120
     18      -0.005955   0.007026  -0.004971  -0.120271  -0.320500  -0.011591
     19       0.094564  -0.123006   0.055237  -0.013451  -0.035648  -0.002093
     20      -0.093165   0.110109  -0.073314  -0.006157  -0.016597   0.000085
     21       0.096549  -0.009925  -0.149198  -0.052748  -0.009085   0.052138
     22      -0.002797   0.001044   0.004434  -0.334090  -0.056882   0.328563
     23       0.080419   0.012391  -0.123966   0.051618   0.008710  -0.050321
     24      -0.006235   0.007183  -0.005173   0.120982   0.323969  -0.011649
     25       0.094700  -0.123132   0.055171   0.013836   0.036832  -0.002126
     26      -0.093242   0.110160  -0.073425   0.006168   0.016732   0.000083
     27       0.287648   0.319248   0.223280  -0.068440   0.079064   0.078820
     28       0.269577   0.341065   0.141049   0.043219  -0.056427  -0.052612
     29      -0.024882  -0.020975  -0.029987  -0.283343   0.344844   0.331093
     30       0.287329   0.318910   0.222906   0.068124  -0.078318   0.079143
     31       0.269178   0.340944   0.141183  -0.042370   0.055224  -0.052096
     32      -0.025485  -0.021819  -0.030184   0.281547  -0.341260   0.332099
     33      -0.097344  -0.113955  -0.075968   0.049147  -0.059888  -0.058189
     34      -0.091249  -0.118130  -0.052946  -0.033201   0.040203   0.038423
     35       0.007762   0.008943   0.006467   0.213423  -0.259352  -0.251292
     36      -0.097248  -0.113865  -0.075835  -0.048896   0.059325  -0.058425
     37      -0.091134  -0.118025  -0.052982   0.032568  -0.039285   0.038036
     38       0.007949   0.009042   0.006590  -0.212077   0.256668  -0.252064
                 36         37         38    
      0      -0.000249  -0.000383  -0.000000
      1      -0.000239   0.000175  -0.000000
      2      -0.000301   0.000252   0.000000
      3      -0.280612  -0.486231  -0.329651
      4      -0.032824  -0.056514  -0.036434
      5      -0.015846  -0.027738  -0.016831
      6      -0.047267   0.026754  -0.051274
      7      -0.296699   0.160761  -0.324004
      8       0.048269  -0.025249   0.049491
      9      -0.281481  -0.481408   0.329012
     10      -0.033645  -0.057142   0.037170
     11      -0.015837  -0.027419   0.016760
     12      -0.047275   0.026492   0.051016
     13      -0.298088   0.159611   0.323941
     14       0.048797  -0.025201  -0.049827
     15       0.034881  -0.019560   0.036671
     16       0.223728  -0.119524   0.232739
     17      -0.034963   0.018521  -0.035374
     18       0.213474   0.365849   0.236888
     19       0.023530   0.040886   0.026059
     20       0.010662   0.019208   0.011956
     21       0.034872  -0.019336  -0.036484
     22       0.224771  -0.118662  -0.232690
     23      -0.035365   0.018515   0.035618
     24       0.214108   0.362215  -0.236404
     25       0.024135   0.041381  -0.026592
     26       0.010665   0.018973  -0.011901
     27      -0.085198   0.053202   0.073397
     28       0.059835  -0.035394  -0.049300
     29      -0.365720   0.223181   0.318869
     30      -0.085586   0.054146  -0.073590
     31       0.059311  -0.035592   0.048752
     32      -0.367007   0.227111  -0.319431
     33       0.063162  -0.039152  -0.052571
     34      -0.043459   0.025977   0.035265
     35       0.276187  -0.166922  -0.229156
     36       0.063451  -0.039869   0.052718
     37      -0.043059   0.026096  -0.034871
     38       0.277170  -0.169872   0.229581


-----------
IR SPECTRUM
-----------

 Mode   freq       eps      Int      T**2         TX        TY        TZ
       cm**-1   L/(mol*cm) km/mol    a.u.
----------------------------------------------------------------------------
  6:     39.24   0.000330    1.67  0.002625  (-0.028484  0.023930  0.035225)
  7:     41.21   0.000171    0.86  0.001292  ( 0.015684  0.032133 -0.003605)
  8:     41.62   0.000171    0.87  0.001285  ( 0.024270 -0.009536  0.024605)
  9:     63.05   0.000487    2.46  0.002410  (-0.017486 -0.039768  0.022864)
 10:     63.60   0.000469    2.37  0.002301  ( 0.037498  0.000010  0.029907)
 11:     64.28   0.000001    0.00  0.000004  ( 0.001577  0.000079  0.001165)
 12:     65.14   0.000018    0.09  0.000088  ( 0.007893  0.002953  0.004176)
 13:     65.96   0.000000    0.00  0.000000  ( 0.000519  0.000122  0.000307)
 14:     66.44   0.000000    0.00  0.000001  (-0.000420 -0.000795  0.000258)
 15:    284.18   0.000001    0.00  0.000001  (-0.000098 -0.000478  0.000730)
 16:    284.61   0.000001    0.00  0.000001  ( 0.000841  0.000156  0.000366)
 17:    292.09   0.010494   53.03  0.011212  (-0.076233  0.008028 -0.073045)
 18:    293.40   0.010082   50.95  0.010723  ( 0.054176  0.074638 -0.047086)
 19:    296.53   0.003500   17.69  0.003684  ( 0.020907 -0.052299 -0.022616)
 20:    302.45   0.000000    0.00  0.000000  (-0.000107  0.000012 -0.000179)
 21:    302.69   0.000000    0.00  0.000000  ( 0.000174 -0.000005 -0.000196)
 22:    325.04   0.000000    0.00  0.000000  ( 0.000057  0.000054 -0.000065)
 23:    327.08   0.000000    0.00  0.000000  (-0.000002  0.000018 -0.000005)
 24:    367.35   0.000000    0.00  0.000000  ( 0.000042 -0.000018  0.000049)
 25:    376.68   0.002160   10.91  0.001789  ( 0.021920 -0.024596 -0.026525)
 26:    380.77   0.000004    0.02  0.000003  (-0.001453 -0.000097 -0.001074)
 27:    381.11   0.000005    0.03  0.000004  ( 0.000828  0.001835 -0.000382)
 28:    381.75   0.000158    0.80  0.000129  ( 0.009648  0.003551  0.004805)
 29:    382.01   0.000138    0.70  0.000113  ( 0.000030 -0.008615  0.006228)
 30:    475.99   0.000007    0.03  0.000004  ( 0.001645 -0.000192  0.001263)
 31:    491.23   0.005450   27.54  0.003462  ( 0.022860  0.047648 -0.025868)
 32:    491.54   0.005534   27.97  0.003513  ( 0.045637 -0.001085  0.037805)
 33:   2039.70   0.000003    0.01  0.000000  (-0.000356  0.000180 -0.000539)
 34:   2040.30   0.000011    0.05  0.000002  (-0.000948  0.000103  0.000842)
 35:   2056.07   0.613363  3099.69  0.093094  ( 0.012779 -0.236663  0.192150)
 36:   2056.20   0.565015  2855.35  0.085751  (-0.195904 -0.137719 -0.168540)
 37:   2056.61   0.363465  1836.80  0.055151  (-0.207635  0.047683  0.098819)
 38:   2168.86   0.000000    0.00  0.000000  (-0.000184 -0.000000 -0.000147)

* The epsilon (eps) is given for a Dirac delta lineshape.
** The dipole moment derivative (T) already includes vibrational overlap.

The first frequency considered to be a vibration is 6
The total number of vibrations considered is 33


--------------------------
THERMOCHEMISTRY AT 298.15K
--------------------------

Temperature         ... 298.15 K
Pressure            ... 1.00 atm
Total Mass          ... 346.55 AMU

Throughout the following assumptions are being made:
  (1) The electronic state is orbitally nondegenerate
  (2) There are no thermally accessible electronically excited states
  (3) Hindered rotations indicated by low frequency modes are not
      treated as such but are treated as vibrations and this may
      cause some error
  (4) All equations used are the standard statistical mechanics
      equations for an ideal gas
  (5) All vibrations are strictly harmonic

freq.      39.24  E(vib)   ...       0.54 
freq.      41.21  E(vib)   ...       0.54 
freq.      41.62  E(vib)   ...       0.53 
freq.      63.05  E(vib)   ...       0.51 
freq.      63.60  E(vib)   ...       0.51 
freq.      64.28  E(vib)   ...       0.51 
freq.      65.14  E(vib)   ...       0.50 
freq.      65.96  E(vib)   ...       0.50 
freq.      66.44  E(vib)   ...       0.50 
freq.     284.18  E(vib)   ...       0.28 
freq.     284.61  E(vib)   ...       0.28 
freq.     292.09  E(vib)   ...       0.27 
freq.     293.40  E(vib)   ...       0.27 
freq.     296.53  E(vib)   ...       0.27 
freq.     302.45  E(vib)   ...       0.26 
freq.     302.69  E(vib)   ...       0.26 
freq.     325.04  E(vib)   ...       0.24 
freq.     327.08  E(vib)   ...       0.24 
freq.     367.35  E(vib)   ...       0.21 
freq.     376.68  E(vib)   ...       0.21 
freq.     380.77  E(vib)   ...       0.21 
freq.     381.11  E(vib)   ...       0.21 
freq.     381.75  E(vib)   ...       0.21 
freq.     382.01  E(vib)   ...       0.21 
freq.     475.99  E(vib)   ...       0.15 
freq.     491.23  E(vib)   ...       0.14 
freq.     491.54  E(vib)   ...       0.14 
freq.    2039.70  E(vib)   ...       0.00 
freq.    2040.30  E(vib)   ...       0.00 
freq.    2056.07  E(vib)   ...       0.00 
freq.    2056.20  E(vib)   ...       0.00 
freq.    2056.61  E(vib)   ...       0.00 
freq.    2168.86  E(vib)   ...       0.00 

------------
INNER ENERGY
------------

The inner energy is: U= E(el) + E(ZPE) + E(vib) + E(rot) + E(trans)
    E(el)   - is the total energy from the electronic structure calculation
              = E(kin-el) + E(nuc-el) + E(el-el) + E(nuc-nuc)
    E(ZPE)  - the the zero temperature vibrational energy from the frequency calculation
    E(vib)  - the the finite temperature correction to E(ZPE) due to population
              of excited vibrational states
    E(rot)  - is the rotational thermal energy
    E(trans)- is the translational thermal energy

Summary of contributions to the inner energy U:
Electronic energy                ...   -727.18314553 Eh
Zero point energy                ...      0.04411621 Eh      27.68 kcal/mol
Thermal vibrational correction   ...      0.01385754 Eh       8.70 kcal/mol
Thermal rotational correction    ...      0.00141627 Eh       0.89 kcal/mol
Thermal translational correction ...      0.00141627 Eh       0.89 kcal/mol
-----------------------------------------------------------------------
Total thermal energy                   -727.12233924 Eh


Summary of corrections to the electronic energy:
(perhaps to be used in another calculation)
Total thermal correction                  0.01669008 Eh      10.47 kcal/mol
Non-thermal (ZPE) correction              0.04411621 Eh      27.68 kcal/mol
-----------------------------------------------------------------------
Total correction                          0.06080629 Eh      38.16 kcal/mol


--------
ENTHALPY
--------

The enthalpy is H = U + kB*T
                kB is Boltzmann's constant
Total free energy                 ...   -727.12233924 Eh 
Thermal Enthalpy correction       ...      0.00094421 Eh       0.59 kcal/mol
-----------------------------------------------------------------------
Total Enthalpy                    ...   -727.12139503 Eh


Note: Only C1 symmetry has been detected, increase convergence thresholds 
      if your molecule has a higher symmetry. Symmetry factor of 1.0 is   
      used for the rotational entropy correction. 
 

Note: Rotational entropy computed according to Herzberg 
Infrared and Raman Spectra, Chapter V,1, Van Nostrand Reinhold, 1945 
Point Group:  C1, Symmetry Number:   1  
Rotational constants in cm-1:     0.018804     0.018785     0.013896 

Vibrational entropy computed according to the QRRHO of S. Grimme
Chem.Eur.J. 2012 18 9955


-------
ENTROPY
-------

The entropy contributions are T*S = T*(S(el)+S(vib)+S(rot)+S(trans))
     S(el)   - electronic entropy
     S(vib)  - vibrational entropy
     S(rot)  - rotational entropy
     S(trans)- translational entropy
The entropies will be listed as multiplied by the temperature to get
units of energy

Electronic entropy                ...      0.00000000 Eh      0.00 kcal/mol
Vibrational entropy               ...      0.02525592 Eh     15.85 kcal/mol
Rotational entropy                ...      0.01528190 Eh      9.59 kcal/mol
Translational entropy             ...      0.02063146 Eh     12.95 kcal/mol
-----------------------------------------------------------------------
Final entropy term                ...      0.06116929 Eh     38.38 kcal/mol

In case the symmetry of your molecule has not been determined correctly
or in case you have a reason to use a different symmetry number we print 
out the resulting rotational entropy values for sn=1,12 :
 --------------------------------------------------------
|  sn= 1 | S(rot)=       0.01528190 Eh      9.59 kcal/mol|
|  sn= 2 | S(rot)=       0.01462744 Eh      9.18 kcal/mol|
|  sn= 3 | S(rot)=       0.01424461 Eh      8.94 kcal/mol|
|  sn= 4 | S(rot)=       0.01397299 Eh      8.77 kcal/mol|
|  sn= 5 | S(rot)=       0.01376230 Eh      8.64 kcal/mol|
|  sn= 6 | S(rot)=       0.01359015 Eh      8.53 kcal/mol|
|  sn= 7 | S(rot)=       0.01344461 Eh      8.44 kcal/mol|
|  sn= 8 | S(rot)=       0.01331853 Eh      8.36 kcal/mol|
|  sn= 9 | S(rot)=       0.01320732 Eh      8.29 kcal/mol|
|  sn=10 | S(rot)=       0.01310784 Eh      8.23 kcal/mol|
|  sn=11 | S(rot)=       0.01301785 Eh      8.17 kcal/mol|
|  sn=12 | S(rot)=       0.01293570 Eh      8.12 kcal/mol|
 --------------------------------------------------------


-------------------
GIBBS FREE ENERGY
-------------------

The Gibbs free energy is G = H - T*S

Total enthalpy                    ...   -727.12139503 Eh 
Total entropy correction          ...     -0.06116929 Eh    -38.38 kcal/mol
-----------------------------------------------------------------------
Final Gibbs free energy         ...   -727.18256431 Eh

For completeness - the Gibbs free energy minus the electronic energy
G-E(el)                           ...      0.00058121 Eh      0.36 kcal/mol


Timings for individual modules:

Sum of individual times         ...     1169.442 sec (=  19.491 min)
GTO integral calculation        ...       15.396 sec (=   0.257 min)   1.3 %
SCF iterations                  ...      576.645 sec (=   9.611 min)  49.3 %
SCF Gradient evaluation         ...      172.020 sec (=   2.867 min)  14.7 %
Geometry relaxation             ...        0.518 sec (=   0.009 min)   0.0 %
Analytical frequency calculation...      404.863 sec (=   6.748 min)  34.6 %
                             ****ORCA TERMINATED NORMALLY****
TOTAL RUN TIME: 0 days 0 hours 19 minutes 31 seconds 997 msec
