
                                 *****************
                                 * O   R   C   A *
                                 *****************

                                            #,                                       
                                            ###                                      
                                            ####                                     
                                            #####                                    
                                            ######                                   
                                           ########,                                 
                                     ,,################,,,,,                         
                               ,,#################################,,                 
                          ,,##########################################,,             
                       ,#########################################, ''#####,          
                    ,#############################################,,   '####,        
                  ,##################################################,,,,####,       
                ,###########''''           ''''###############################       
              ,#####''   ,,,,##########,,,,          '''####'''          '####       
            ,##' ,,,,###########################,,,                        '##       
           ' ,,###''''                  '''############,,,                           
         ,,##''                                '''############,,,,        ,,,,,,###''
      ,#''                                            '''#######################'''  
     '                                                          ''''####''''         
             ,#######,   #######,   ,#######,      ##                                
            ,#'     '#,  ##    ##  ,#'     '#,    #''#        ######   ,####,        
            ##       ##  ##   ,#'  ##            #'  '#       #        #'  '#        
            ##       ##  #######   ##           ,######,      #####,   #    #        
            '#,     ,#'  ##    ##  '#,     ,#' ,#      #,         ##   #,  ,#        
             '#######'   ##     ##  '#######'  #'      '#     #####' # '####'        



                  #######################################################
                  #                        -***-                        #
                  #          Department of theory and spectroscopy      #
                  #    Directorship and core code : Frank Neese         #
                  #        Max Planck Institute fuer Kohlenforschung    #
                  #                Kaiser Wilhelm Platz 1               #
                  #                 D-45470 Muelheim/Ruhr               #
                  #                      Germany                        #
                  #                                                     #
                  #                  All rights reserved                #
                  #                        -***-                        #
                  #######################################################



                         Program Version 5.0.4 -  RELEASE  -

 With contributions from (in alphabetic order):
   Daniel Aravena         : Magnetic Suceptibility
   Michael Atanasov       : Ab Initio Ligand Field Theory (pilot matlab implementation)
   Alexander A. Auer      : GIAO ZORA, VPT2 properties, NMR spectrum
   Ute Becker             : Parallelization
   Giovanni Bistoni       : ED, misc. LED, open-shell LED, HFLD
   Martin Brehm           : Molecular dynamics
   Dmytro Bykov           : SCF Hessian
   Vijay G. Chilkuri      : MRCI spin determinant printing, contributions to CSF-ICE
   Dipayan Datta          : RHF DLPNO-CCSD density
   Achintya Kumar Dutta   : EOM-CC, STEOM-CC
   Dmitry Ganyushin       : Spin-Orbit,Spin-Spin,Magnetic field MRCI
   Miquel Garcia          : C-PCM and meta-GGA Hessian, CC/C-PCM, Gaussian charge scheme
   Yang Guo               : DLPNO-NEVPT2, F12-NEVPT2, CIM, IAO-localization
   Andreas Hansen         : Spin unrestricted coupled pair/coupled cluster methods
   Benjamin Helmich-Paris : MC-RPA, TRAH-SCF, COSX integrals
   Lee Huntington         : MR-EOM, pCC
   Robert Izsak           : Overlap fitted RIJCOSX, COSX-SCS-MP3, EOM
   Marcus Kettner         : VPT2
   Christian Kollmar      : KDIIS, OOCD, Brueckner-CCSD(T), CCSD density, CASPT2, CASPT2-K
   Simone Kossmann        : Meta GGA functionals, TD-DFT gradient, OOMP2, MP2 Hessian
   Martin Krupicka        : Initial AUTO-CI
   Lucas Lang             : DCDCAS
   Marvin Lechner         : AUTO-CI (C++ implementation), FIC-MRCC
   Dagmar Lenk            : GEPOL surface, SMD
   Dimitrios Liakos       : Extrapolation schemes; Compound Job, initial MDCI parallelization
   Dimitrios Manganas     : Further ROCIS development; embedding schemes
   Dimitrios Pantazis     : SARC Basis sets
   Anastasios Papadopoulos: AUTO-CI, single reference methods and gradients
   Taras Petrenko         : DFT Hessian,TD-DFT gradient, ASA, ECA, R-Raman, ABS, FL, XAS/XES, NRVS
   Peter Pinski           : DLPNO-MP2, DLPNO-MP2 Gradient
   Christoph Reimann      : Effective Core Potentials
   Marius Retegan         : Local ZFS, SOC
   Christoph Riplinger    : Optimizer, TS searches, QM/MM, DLPNO-CCSD(T), (RO)-DLPNO pert. Triples
   Tobias Risthaus        : Range-separated hybrids, TD-DFT gradient, RPA, STAB
   Michael Roemelt        : Original ROCIS implementation
   Masaaki Saitow         : Open-shell DLPNO-CCSD energy and density
   Barbara Sandhoefer     : DKH picture change effects
   Avijit Sen             : IP-ROCIS
   Kantharuban Sivalingam : CASSCF convergence, NEVPT2, FIC-MRCI
   Bernardo de Souza      : ESD, SOC TD-DFT
   Georgi Stoychev        : AutoAux, RI-MP2 NMR, DLPNO-MP2 response
   Willem Van den Heuvel  : Paramagnetic NMR
   Boris Wezisla          : Elementary symmetry handling
   Frank Wennmohs         : Technical directorship


 We gratefully acknowledge several colleagues who have allowed us to
 interface, adapt or use parts of their codes:
   Stefan Grimme, W. Hujo, H. Kruse, P. Pracht,  : VdW corrections, initial TS optimization,
                  C. Bannwarth, S. Ehlert          DFT functionals, gCP, sTDA/sTD-DF
   Ed Valeev, F. Pavosevic, A. Kumar             : LibInt (2-el integral package), F12 methods
   Garnet Chan, S. Sharma, J. Yang, R. Olivares  : DMRG
   Ulf Ekstrom                                   : XCFun DFT Library
   Mihaly Kallay                                 : mrcc  (arbitrary order and MRCC methods)
   Jiri Pittner, Ondrej Demel                    : Mk-CCSD
   Frank Weinhold                                : gennbo (NPA and NBO analysis)
   Christopher J. Cramer and Donald G. Truhlar   : smd solvation model
   Lars Goerigk                                  : TD-DFT with DH, B97 family of functionals
   V. Asgeirsson, H. Jonsson                     : NEB implementation
   FAccTs GmbH                                   : IRC, NEB, NEB-TS, DLPNO-Multilevel, CI-OPT
                                                   MM, QMMM, 2- and 3-layer-ONIOM, Crystal-QMMM,
                                                   LR-CPCM, SF, NACMEs, symmetry and pop. for TD-DFT,
                                                   nearIR, NL-DFT gradient (VV10), updates on ESD,
                                                   ML-optimized integration grids
   S Lehtola, MJT Oliveira, MAL Marques          : LibXC Library
   Liviu Ungur et al                             : ANISO software


 Your calculation uses the libint2 library for the computation of 2-el integrals
 For citations please refer to: http://libint.valeyev.net

 Your ORCA version has been built with support for libXC version: 5.1.0
 For citations please refer to: https://tddft.org/programs/libxc/

 This ORCA versions uses:
   CBLAS   interface :  Fast vector & matrix operations
   LAPACKE interface :  Fast linear algebra routines
   Shared memory     :  Shared parallel matrices


================================================================================

cite the ECPs for Hf [Def2-ECP] as follows:
Ce-Yb(ecp-28): M. Dolg, H. Stoll, H.Preuss, J. Chem. Phys., 1989, 90, 1730-1734.
Y-Cd(ecp-28), Hf-Hg(ecp-46): D. Andrae,U. Haeussermann, M. Dolg, H. Stoll, H. Preuss, Theor. Chim. Acta, 1990, 77, 123-141.
In-Sb(ecp-28), Tl-Bi(ecp-46): B. Metz, H. Stoll, M. Dolg, J. Chem. Phys., 2000, 113, 2563-2569.
Te-Xe(ecp-28), Po-Rn(ecp-46): K. A. Peterson, D. Figgen, E. Goll, H. Stoll, M. Dolg, J. Chem. Phys., 2003, 119, 11113-11123.
Rb(ecp-28), Cs(ecp-46): T. Leininger, A. Nicklass, W. Kuechle, H. Stoll, M. Dolg, A. Bergner, Chem. Phys. Lett., 1996, 255, 274-280.
Sr(ecp-28), Ba(ecp-46): M. Kaupp, P. V. Schleyer, H. Stoll and H. Preuss, J. Chem. Phys., 1991, 94, 1360-1366.
La(ecp-46): M. Dolg, H. Stoll, A. Savin, H. Preuss, Theor. Chim. Acta, 1989, 75, 173-194.
Lu(ecp-28): X. Cao, M. Dolg, J. Chem. Phys., 2001, 115, 7348-7355.

ECP parameters for Hf [Def2-ECP] have been obtained from:
TURBOMOLE (7.0.2)

----- Orbital basis set information -----
Your calculation utilizes the basis: def2-SVPD
   F. Weigend and R. Ahlrichs, Phys. Chem. Chem. Phys. 7, 3297 (2005).
   D. Rappoport and F. Furche, J. Chem. Phys. 133 134105 (2010).

----- AuxJ basis set information -----
Your calculation utilizes the auxiliary basis: def2/J
   F. Weigend, Phys. Chem. Chem. Phys. 8, 1057 (2006).

================================================================================
                                        WARNINGS
                       Please study these warnings very carefully!
================================================================================


WARNING: Geometry Optimization
  ===> : Switching off AutoStart
         For restart on a previous wavefunction, please use MOREAD

INFO   : the flag for use of the SHARK integral package has been found!

================================================================================
                                       INPUT FILE
================================================================================
NAME = HfCO6-2.inp
|  1> !B3LYP def2-SVPD OPT FREQ TightSCF PAL8

|  2> 

|  3> %scf

|  4>   MaxIter 300

|  5> end

|  6> 

|  7> * xyz -2 1 

|  8> Hf        -0.43733        0.82114       -0.00327

|  9> C          1.85069        0.75179       -0.21043

| 10> C         -0.36713        3.11851        0.00002

| 11> C         -2.72538        0.89099        0.20388

| 12> C         -0.50743       -1.47623       -0.00656

| 13> O         -0.33267        4.24599        0.00163

| 14> O          2.97368        0.71783       -0.31146

| 15> O         -0.54180       -2.60370       -0.00817

| 16> O         -3.84828        0.92536        0.30489

| 17> C         -0.64818        0.83067       -2.29202

| 18> C         -0.22660        0.81111        2.28546

| 19> O         -0.75232        0.83529       -3.41517

| 20> O         -0.12255        0.80608        3.40866

| 21> **                         ****END OF INPUT****
================================================================================

                       *****************************
                       * Geometry Optimization Run *
                       *****************************

Geometry optimization settings:
Update method            Update   .... BFGS
Choice of coordinates    CoordSys .... Z-matrix Internals
Initial Hessian          InHess   .... Almoef's Model

Convergence Tolerances:
Energy Change            TolE     ....  5.0000e-06 Eh
Max. Gradient            TolMAXG  ....  3.0000e-04 Eh/bohr
RMS Gradient             TolRMSG  ....  1.0000e-04 Eh/bohr
Max. Displacement        TolMAXD  ....  4.0000e-03 bohr
RMS Displacement         TolRMSD  ....  2.0000e-03 bohr
Strict Convergence                ....  False
------------------------------------------------------------------------------
                        ORCA OPTIMIZATION COORDINATE SETUP
------------------------------------------------------------------------------

The optimization will be done in new redundant internal coordinates
Making redundant internal coordinates   ...  (new redundants) done
Evaluating the initial hessian          ...  (Almloef) done
Evaluating the coordinates              ...  done
Calculating the B-matrix                .... done
Calculating the G-matrix                .... done
Diagonalizing the G-matrix              .... done
The first mode is                       ....    3
The number of degrees of freedom        ....   33

    -----------------------------------------------------------------
                    Redundant Internal Coordinates


    -----------------------------------------------------------------
         Definition                    Initial Value    Approx d2E/dq
    -----------------------------------------------------------------
      1. B(C   1,Hf  0)                  2.2984         0.051684   
      2. B(C   2,Hf  0)                  2.2984         0.051680   
      3. B(C   3,Hf  0)                  2.2985         0.051675   
      4. B(C   4,Hf  0)                  2.2984         0.051681   
      5. B(O   5,C   2)                  1.1280         1.465101   
      6. B(O   6,C   1)                  1.1280         1.464944   
      7. B(O   7,C   4)                  1.1280         1.465170   
      8. B(O   8,C   3)                  1.1280         1.465369   
      9. B(C   9,Hf  0)                  2.2985         0.051677   
     10. B(C  10,Hf  0)                  2.2984         0.051682   
     11. B(O  11,C   9)                  1.1280         1.465265   
     12. B(O  12,C  10)                  1.1280         1.465032   
     13. A(C   3,Hf  0,C   9)           89.9025         0.214951   
     14. A(C   2,Hf  0,C   9)           90.0047         0.214953   
     15. A(C   1,Hf  0,C  10)           89.9055         0.214958   
     16. A(C   4,Hf  0,C  10)           89.9920         0.214957   
     17. A(C   2,Hf  0,C  10)           90.0078         0.214956   
     18. A(C   4,Hf  0,C   9)           89.9955         0.214953   
     19. A(C   3,Hf  0,C  10)           90.0949         0.214954   
     20. A(C   3,Hf  0,C   4)           90.0082         0.214953   
     21. A(C   1,Hf  0,C   2)           89.9933         0.214957   
     22. A(C   2,Hf  0,C   3)           89.9942         0.214952   
     23. A(C   1,Hf  0,C   4)           90.0042         0.214957   
     24. A(C   1,Hf  0,C   9)           90.0971         0.214955   
     25. L(Hf  0,C   1,O   6,C  10, 1) 179.9673         0.340188   
     26. L(Hf  0,C   1,O   6,C  10, 2) 180.0057         0.340188   
     27. L(Hf  0,C   2,O   5,C   1, 2) 179.9997         0.340190   
     28. L(Hf  0,C   2,O   5,C   1, 1) 179.9996         0.340190   
     29. L(Hf  0,C   3,O   8,C   9, 2) 180.0064         0.340195   
     30. L(Hf  0,C   3,O   8,C   9, 1) 179.9670         0.340195   
     31. L(Hf  0,C   4,O   7,C  10, 2) 180.0023         0.340193   
     32. L(Hf  0,C   4,O   7,C  10, 1) 179.9996         0.340193   
     33. L(Hf  0,C   9,O  11,C   3, 2) 180.0055         0.340193   
     34. L(Hf  0,C   9,O  11,C   3, 1) 179.9662         0.340193   
     35. L(Hf  0,C  10,O  12,C   1, 2) 180.0063         0.340190   
     36. L(Hf  0,C  10,O  12,C   1, 1) 179.9678         0.340190   
    -----------------------------------------------------------------

Number of atoms                         .... 13
Number of degrees of freedom            .... 36

         *************************************************************
         *                GEOMETRY OPTIMIZATION CYCLE   1            *
         *************************************************************
---------------------------------
CARTESIAN COORDINATES (ANGSTROEM)
---------------------------------
  Hf    -0.437330    0.821140   -0.003270
  C      1.850690    0.751790   -0.210430
  C     -0.367130    3.118510    0.000020
  C     -2.725380    0.890990    0.203880
  C     -0.507430   -1.476230   -0.006560
  O     -0.332670    4.245990    0.001630
  O      2.973680    0.717830   -0.311460
  O     -0.541800   -2.603700   -0.008170
  O     -3.848280    0.925360    0.304890
  C     -0.648180    0.830670   -2.292020
  C     -0.226600    0.811110    2.285460
  O     -0.752320    0.835290   -3.415170
  O     -0.122550    0.806080    3.408660

----------------------------
CARTESIAN COORDINATES (A.U.)
----------------------------
  NO LB      ZA    FRAG     MASS         X           Y           Z
   0 Hf   12.0000*   0   178.490   -0.826434    1.551730   -0.006179
   1 C     6.0000    0    12.011    3.497297    1.420677   -0.397655
   2 C     6.0000    0    12.011   -0.693775    5.893130    0.000038
   3 C     6.0000    0    12.011   -5.150222    1.683727    0.385277
   4 C     6.0000    0    12.011   -0.958904   -2.789670   -0.012397
   5 O     8.0000    0    15.999   -0.628655    8.023758    0.003080
   6 O     8.0000    0    15.999    5.619441    1.356502   -0.588574
   7 O     8.0000    0    15.999   -1.023854   -4.920280   -0.015439
   8 O     8.0000    0    15.999   -7.272195    1.748677    0.576159
   9 C     6.0000    0    12.011   -1.224883    1.569739   -4.331290
  10 C     6.0000    0    12.011   -0.428212    1.532776    4.318893
  11 O     8.0000    0    15.999   -1.421679    1.578469   -6.453736
  12 O     8.0000    0    15.999   -0.231586    1.523270    6.441434
* core charge reduced due to ECP

--------------------------------
INTERNAL COORDINATES (ANGSTROEM)
--------------------------------
 Hf     0   0   0     0.000000000000     0.00000000     0.00000000
 C      1   0   0     2.298425593423     0.00000000     0.00000000
 C      1   2   0     2.298444643884    89.99333164     0.00000000
 C      1   2   3     2.298469696885   179.98755957     1.69360706
 C      1   2   3     2.298441591818    90.00418684   180.00022447
 O      3   1   2     1.128007639203   179.99953259    25.06024110
 O      2   1   3     1.128036738143   179.96705257    83.02433160
 O      5   1   2     1.127994897994   179.99832515    13.22061986
 O      4   1   2     1.127957768270   179.96666714    80.51700504
 C      1   2   3     2.298461464959    90.09709529    90.00473603
 C      1   2   3     2.298432671779    89.90546033   269.99218602
 O     10   1   2     1.127977130309   179.96597053   173.40112571
 O     11   1   2     1.128020364798   179.96748502   352.06131053

---------------------------
INTERNAL COORDINATES (A.U.)
---------------------------
 Hf     0   0   0     0.000000000000     0.00000000     0.00000000
 C      1   0   0     4.343394910764     0.00000000     0.00000000
 C      1   2   0     4.343430910919    89.99333164     0.00000000
 C      1   2   3     4.343478254230   179.98755957     1.69360706
 C      1   2   3     4.343425143351    90.00418684   180.00022447
 O      3   1   2     2.131625515064   179.99953259    25.06024110
 O      2   1   3     2.131680504092   179.96705257    83.02433160
 O      5   1   2     2.131601437669   179.99832515    13.22061986
 O      4   1   2     2.131531272659   179.96666714    80.51700504
 C      1   2   3     4.343462698143    90.09709529    90.00473603
 C      1   2   3     4.343408286919    89.90546033   269.99218602
 O     10   1   2     2.131567861610   179.96597053   173.40112571
 O     11   1   2     2.131649562955   179.96748502   352.06131053

---------------------
BASIS SET INFORMATION
---------------------
There are 3 groups of distinct atoms

 Group   1 Type Hf  : 7s7p5d1f contracted to 6s4p2d1f pattern {211111/4111/41/1}
 Group   2 Type C   : 8s4p2d contracted to 4s2p2d pattern {5111/31/11}
 Group   3 Type O   : 8s5p2d contracted to 4s3p2d pattern {5111/311/11}

Atom   0Hf   basis set group =>   1
Atom   1C    basis set group =>   2
Atom   2C    basis set group =>   2
Atom   3C    basis set group =>   2
Atom   4C    basis set group =>   2
Atom   5O    basis set group =>   3
Atom   6O    basis set group =>   3
Atom   7O    basis set group =>   3
Atom   8O    basis set group =>   3
Atom   9C    basis set group =>   2
Atom  10C    basis set group =>   2
Atom  11O    basis set group =>   3
Atom  12O    basis set group =>   3
---------------------------------
AUXILIARY/J BASIS SET INFORMATION
---------------------------------
There are 3 groups of distinct atoms

 Group   1 Type Hf  : 11s5p5d3f3g contracted to 8s5p5d2f3g pattern {41111111/11111/11111/21/111}
 Group   2 Type C   : 12s5p4d2f1g contracted to 6s4p3d1f1g pattern {711111/2111/211/2/1}
 Group   3 Type O   : 12s5p4d2f1g contracted to 6s4p3d1f1g pattern {711111/2111/211/2/1}

Atom   0Hf   basis set group =>   1
Atom   1C    basis set group =>   2
Atom   2C    basis set group =>   2
Atom   3C    basis set group =>   2
Atom   4C    basis set group =>   2
Atom   5O    basis set group =>   3
Atom   6O    basis set group =>   3
Atom   7O    basis set group =>   3
Atom   8O    basis set group =>   3
Atom   9C    basis set group =>   2
Atom  10C    basis set group =>   2
Atom  11O    basis set group =>   3
Atom  12O    basis set group =>   3
-------------------------
ECP PARAMETER INFORMATION
-------------------------

 Group 1, Type Hf ECP Def2-ECP (replacing 60 core electrons, lmax=3)

Atom   0Hf   ECP group =>   1



           ************************************************************
           *        Program running with 8 parallel MPI-processes     *
           *              working on a common directory               *
           ************************************************************
------------------------------------------------------------------------------
                           ORCA GTO INTEGRAL CALCULATION
                           -- RI-GTO INTEGRALS CHOSEN --
------------------------------------------------------------------------------
------------------------------------------------------------------------------
                   ___                                                        
                  /   \      - P O W E R E D   B Y -                         
                 /     \                                                     
                 |  |  |   _    _      __       _____    __    __             
                 |  |  |  | |  | |    /  \     |  _  \  |  |  /  |          
                  \  \/   | |  | |   /    \    | | | |  |  | /  /          
                 / \  \   | |__| |  /  /\  \   | |_| |  |  |/  /          
                |  |  |   |  __  | /  /__\  \  |    /   |      \           
                |  |  |   | |  | | |   __   |  |    \   |  |\   \          
                \     /   | |  | | |  |  |  |  | |\  \  |  | \   \       
                 \___/    |_|  |_| |__|  |__|  |_| \__\ |__|  \__/        
                                                                              
                      - O R C A' S   B I G   F R I E N D -                    
                                      &                                       
                       - I N T E G R A L  F E E D E R -                       
                                                                              
 v1 FN, 2020, v2 2021                                                         
------------------------------------------------------------------------------


Reading SHARK input file HfCO6-2.SHARKINP.tmp ... ok
----------------------
SHARK INTEGRAL PACKAGE
----------------------

Number of atoms                             ...     13
Number of basis functions                   ...    293
Number of shells                            ...    115
Maximum angular momentum                    ...      3
Integral batch strategy                     ... SHARK/LIBINT Hybrid
RI-J (if used) integral strategy            ... SPLIT-RIJ (Revised 2003 algorithm where possible)
Printlevel                                  ...      1
Contraction scheme used                     ... SEGMENTED contraction
Coulomb Range Separation                    ... NOT USED
Exchange Range Separation                   ... NOT USED
Finite Nucleus Model                        ... NOT USED
Auxiliary Coulomb fitting basis             ... AVAILABLE
   # of basis functions in Aux-J            ...    677
   # of shells in Aux-J                     ...    203
   Maximum angular momentum in Aux-J        ...      4
Auxiliary J/K fitting basis                 ... NOT available
Auxiliary Correlation fitting basis         ... NOT available
Auxiliary 'external' fitting basis          ... NOT available
Integral threshold                          ...     2.500000e-11
Primitive cut-off                           ...     2.500000e-12
Primitive pair pre-selection threshold      ...     2.500000e-12

Calculating pre-screening integrals         ... done (  0.0 sec) Dimension = 115
Organizing shell pair data                  ... done (  0.0 sec)
Shell pair information
Total number of shell pairs                 ...      6670
Shell pairs after pre-screening             ...      6025
Total number of primitive shell pairs       ...     19084
Primitive shell pairs kept                  ...     13039
          la=0 lb=0:   1272 shell pairs
          la=1 lb=0:   1662 shell pairs
          la=1 lb=1:    568 shell pairs
          la=2 lb=0:   1242 shell pairs
          la=2 lb=1:    836 shell pairs
          la=2 lb=2:    330 shell pairs
          la=3 lb=0:     54 shell pairs
          la=3 lb=1:     34 shell pairs
          la=3 lb=2:     26 shell pairs
          la=3 lb=3:      1 shell pairs

Calculating one electron integrals          ... done (  0.0 sec)
Calculating ECP integrals                   ... done (  0.4 sec)
Calculating RI/J V-Matrix + Cholesky decomp.... done (  0.0 sec)
Calculating Nuclear repulsion               ... done (  0.0 sec) ENN=    679.356281637222 Eh

SHARK setup successfully completed in   0.7 seconds

Maximum memory used throughout the entire GTOINT-calculation: 17.9 MB


           ************************************************************
           *        Program running with 8 parallel MPI-processes     *
           *              working on a common directory               *
           ************************************************************
-------------------------------------------------------------------------------
                                 ORCA SCF
-------------------------------------------------------------------------------

------------
SCF SETTINGS
------------
Hamiltonian:
 Density Functional     Method          .... DFT(GTOs)
 Exchange Functional    Exchange        .... B88
   X-Alpha parameter    XAlpha          ....  0.666667
   Becke's b parameter  XBeta           ....  0.004200
 Correlation Functional Correlation     .... LYP
 LDA part of GGA corr.  LDAOpt          .... VWN-5
 Gradients option       PostSCFGGA      .... off
 Hybrid DFT is turned on
   Fraction HF Exchange ScalHFX         ....  0.200000
   Scaling of DF-GGA-X  ScalDFX         ....  0.720000
   Scaling of DF-GGA-C  ScalDFC         ....  0.810000
   Scaling of DF-LDA-C  ScalLDAC        ....  1.000000
   Perturbative correction              ....  0.000000
   Density functional embedding theory  .... OFF
   NL short-range parameter             ....  4.800000
 RI-approximation to the Coulomb term is turned on
   Number of AuxJ basis functions       .... 677
   RIJ-COSX (HFX calculated with COS-X)).... on


General Settings:
 Integral files         IntName         .... HfCO6-2
 Hartree-Fock type      HFTyp           .... RHF
 Total Charge           Charge          ....   -2
 Multiplicity           Mult            ....    1
 Number of Electrons    NEL             ....   98
 Basis Dimension        Dim             ....  293
 Nuclear Repulsion      ENuc            ....    679.3562816372 Eh

Convergence Acceleration:
 DIIS                   CNVDIIS         .... on
   Start iteration      DIISMaxIt       ....    12
   Startup error        DIISStart       ....  0.200000
   # of expansion vecs  DIISMaxEq       ....     5
   Bias factor          DIISBfac        ....   1.050
   Max. coefficient     DIISMaxC        ....  10.000
 Trust-Rad. Augm. Hess. CNVTRAH         .... auto
   Auto Start mean grad. ratio tolernc. ....  1.125000
   Auto Start start iteration           ....    20
   Auto Start num. interpolation iter.  ....    10
   Max. Number of Micro iterations      ....    16
   Max. Number of Macro iterations      .... Maxiter - #DIIS iter
   Number of Davidson start vectors     ....     2
   Converg. threshold I  (grad. norm)   ....   1.000e-05
   Converg. threshold II (energy diff.) ....   1.000e-08
   Grad. Scal. Fac. for Micro threshold ....   0.100
   Minimum threshold for Micro iter.    ....   0.010
   NR start threshold (gradient norm)   ....   0.001
   Initial trust radius                 ....   0.400
   Minimum AH scaling param. (alpha)    ....   1.000
   Maximum AH scaling param. (alpha)    .... 1000.000
   Orbital update algorithm             .... Taylor
   White noise on init. David. guess    .... on
   Maximum white noise                  ....   0.010
   Quad. conv. algorithm                .... NR
 SOSCF                  CNVSOSCF        .... off
 Level Shifting         CNVShift        .... on
   Level shift para.    LevelShift      ....    0.2500
   Turn off err/grad.   ShiftErr        ....    0.0010
 Zerner damping         CNVZerner       .... off
 Static damping         CNVDamp         .... on
   Fraction old density DampFac         ....    0.7000
   Max. Damping (<1)    DampMax         ....    0.9800
   Min. Damping (>=0)   DampMin         ....    0.0000
   Turn off err/grad.   DampErr         ....    0.1000
 Fernandez-Rico         CNVRico         .... off

SCF Procedure:
 Maximum # iterations   MaxIter         ....   300
 SCF integral mode      SCFMode         .... Direct
   Integral package                     .... SHARK and LIBINT hybrid scheme
 Reset frequency        DirectResetFreq ....    20
 Integral Threshold     Thresh          ....  2.500e-11 Eh
 Primitive CutOff       TCut            ....  2.500e-12 Eh

Convergence Tolerance:
 Convergence Check Mode ConvCheckMode   .... Total+1el-Energy
 Convergence forced     ConvForced      .... 0
 Energy Change          TolE            ....  1.000e-08 Eh
 1-El. energy change                    ....  1.000e-05 Eh
 DIIS Error             TolErr          ....  5.000e-07


Diagonalization of the overlap matrix:
Smallest eigenvalue                        ... 4.230e-05
Time for diagonalization                   ...    0.016 sec
Threshold for overlap eigenvalues          ... 1.000e-08
Number of eigenvalues below threshold      ... 0
Time for construction of square roots      ...    0.038 sec
Total time needed                          ...    0.055 sec

Time for model grid setup =    0.143 sec

------------------------------
INITIAL GUESS: MODEL POTENTIAL
------------------------------
Loading Hartree-Fock densities                     ... done
  calling C:\orca_5_0_4\orca HfCO6-2_atom72.inp > HfCO6-2_atom72.out in order to generate an atomic fitting density for atom 0 (Hf with ECP) on-the-fly... 
    atom 0 (Hf), assumed electronic state with S=3: 1s2 2s2 2p6 3s2 3p6 4s2 3d10 4p6 5s2 4d10 5p6 6s2 4f14 5d2           ... done
Calculating cut-offs                               ... done
Initializing the effective Hamiltonian             ... done
Setting up the integral package (SHARK)            ... done
Starting the Coulomb interaction                   ... done (   0.1 sec)
Reading the grid                                   ... done
Mapping shells                                     ... done
Starting the XC term evaluation                    ... done (   0.1 sec)
  promolecular density results
     # of electrons  =    156.003855421
     EX              =   -390.362811814
     EC              =     -6.850133312
     EX+EC           =   -397.212945126
Transforming the Hamiltonian                       ... done (   0.0 sec)
Diagonalizing the Hamiltonian                      ... done (   0.0 sec)
Back transforming the eigenvectors                 ... done (   0.0 sec)
Now organizing SCF variables                       ... done
                      ------------------
                      INITIAL GUESS DONE (   3.7 sec)
                      ------------------
-------------------
DFT GRID GENERATION
-------------------

General Integration Accuracy     IntAcc      ... 4.388
Radial Grid Type                 RadialGrid  ... OptM3 with GC (2021)
Angular Grid (max. ang.)         AngularGrid ... 4 (Lebedev-302)
Angular grid pruning method      GridPruning ... 4 (adaptive)
Weight generation scheme         WeightScheme... Becke
Basis function cutoff            BFCut       ... 1.0000e-11
Integration weight cutoff        WCut        ... 1.0000e-14
Angular grids for H and He will be reduced by one unit
Partially contracted basis set               ... off
Rotationally invariant grid construction     ... off

Total number of grid points                  ...    86112
Total number of batches                      ...     1353
Average number of points per batch           ...       63
Average number of grid points per atom       ...     6624
Time for grid setup =    0.596 sec

--------------------
COSX GRID GENERATION
--------------------

GRIDX 1
-------
General Integration Accuracy     IntAcc      ... 3.816
Radial Grid Type                 RadialGrid  ... OptM3 with GC (2021)
Angular Grid (max. ang.)         AngularGrid ... 1 (Lebedev-50)
Angular grid pruning method      GridPruning ... 4 (adaptive)
Weight generation scheme         WeightScheme... Becke
Basis function cutoff            BFCut       ... 1.0000e-11
Integration weight cutoff        WCut        ... 1.0000e-14
Angular grids for H and He will be reduced by one unit
Partially contracted basis set               ... on
Rotationally invariant grid construction     ... off

Total number of grid points                  ...    10572
Total number of batches                      ...      172
Average number of points per batch           ...       61
Average number of grid points per atom       ...      813
UseSFitting                                  ... on

GRIDX 2
-------
General Integration Accuracy     IntAcc      ... 4.020
Radial Grid Type                 RadialGrid  ... OptM3 with GC (2021)
Angular Grid (max. ang.)         AngularGrid ... 2 (Lebedev-110)
Angular grid pruning method      GridPruning ... 4 (adaptive)
Weight generation scheme         WeightScheme... Becke
Basis function cutoff            BFCut       ... 1.0000e-11
Integration weight cutoff        WCut        ... 1.0000e-14
Angular grids for H and He will be reduced by one unit
Partially contracted basis set               ... on
Rotationally invariant grid construction     ... off

Total number of grid points                  ...    27989
Total number of batches                      ...      444
Average number of points per batch           ...       63
Average number of grid points per atom       ...     2153
UseSFitting                                  ... on

GRIDX 3
-------
General Integration Accuracy     IntAcc      ... 4.338
Radial Grid Type                 RadialGrid  ... OptM3 with GC (2021)
Angular Grid (max. ang.)         AngularGrid ... 3 (Lebedev-194)
Angular grid pruning method      GridPruning ... 4 (adaptive)
Weight generation scheme         WeightScheme... Becke
Basis function cutoff            BFCut       ... 1.0000e-11
Integration weight cutoff        WCut        ... 1.0000e-14
Angular grids for H and He will be reduced by one unit
Partially contracted basis set               ... on
Rotationally invariant grid construction     ... off

Total number of grid points                  ...    59748
Total number of batches                      ...      939
Average number of points per batch           ...       63
Average number of grid points per atom       ...     4596
UseSFitting                                  ... on

Time for X-Grid setup             =    0.884 sec

--------------
SCF ITERATIONS
--------------
ITER       Energy         Delta-E        Max-DP      RMS-DP      [F,P]     Damp
               ***  Starting incremental Fock matrix formation  ***
  0   -724.6354379607   0.000000000000156.21532900  0.80013162  0.6596607 0.7000
  1   -725.9875820044  -1.352144043648112.77074743  0.56439267  0.2840825 0.7000
                               ***Turning on DIIS***
  2   -726.4038490355  -0.41626703111678.09516533  0.38292160  0.1317656 0.7000
  3   -726.5701688214  -0.166319785973173.47194018  0.84236498  0.0827611 0.0000
  4   -726.8599296080  -0.289760786576 2.08838659  0.01487975  0.1275317 0.7000
  5   -726.8928853566  -0.032955748535 2.31424096  0.01991621  0.1139528 0.7000
  6   -726.9248538670  -0.031968510477 6.28963913  0.07319820  0.0944577 0.0000
  7   -726.9913817411  -0.066527874041 4.26624016  0.04166615  0.0175084 0.0000
  8   -726.9935208903  -0.002139149196 4.46998366  0.03938987  0.0113791 0.0000
  9   -726.9945757199  -0.001054829679 4.89979506  0.03983412  0.0030672 0.0000
 10   -726.9949842654  -0.000408545423 4.64914992  0.03700956  0.0012571 0.0000
 11   -726.9952508441  -0.000266578731528.56583826  2.68187468  0.0008369 0.0000
               *** Restarting incremental Fock matrix formation ***
                                   *** Resetting DIIS ***
 12   -727.0877580285  -0.092507184392 0.29369320  0.00502667  0.0966029 0.0000
 13   -727.1125060440  -0.024748015479 0.11015524  0.00186538  0.0675324 0.0000
 14   -727.1619673644  -0.049461320407 0.05077654  0.00090098  0.0249047 0.0000
 15   -727.1674974284  -0.005530064066 0.00698063  0.00021683  0.0068901 0.0000
 16   -727.1680439022  -0.000546473766 0.00471155  0.00009644  0.0039007 0.0000
 17   -727.1681309507  -0.000087048519 0.01585836  0.00020998  0.0009572 0.0000
 18   -727.1681399440  -0.000008993234 0.00270623  0.00003708  0.0003125 0.0000
 19   -727.1681408536  -0.000000909608 0.00154241  0.00002131  0.0001668 0.0000
 20   -727.1681414076  -0.000000554068 0.00069475  0.00000920  0.0000700 0.0000
 21   -727.1681413856   0.000000022018 0.00029787  0.00000428  0.0000857 0.0000
 22   -727.1681414347  -0.000000049055 0.00002586  0.00000083  0.0000262 0.0000
 23   -727.1681414469  -0.000000012219 0.00014560  0.00000208  0.0000116 0.0000
 24   -727.1681414326   0.000000014308 0.00001702  0.00000047  0.0000045 0.0000
                 **** Energy Check signals convergence ****

               *****************************************************
               *                     SUCCESS                       *
               *           SCF CONVERGED AFTER  25 CYCLES          *
               *****************************************************

Old exchange energy                            =    -17.127096029 Eh
New exchange energy                            =    -17.127116913 Eh
Exchange energy change after final integration =     -0.000020884 Eh
Total energy after final integration           =   -727.168162318 Eh
Final COS-X integration done in                =     4.085 sec

----------------
TOTAL SCF ENERGY
----------------

Total Energy       :         -727.16816232 Eh          -19787.25166 eV

Components:
Nuclear Repulsion  :          679.35628164 Eh           18486.22424 eV
Electronic Energy  :        -1406.52444395 Eh          -38273.47591 eV
One Electron Energy:        -2387.09280069 Eh          -64956.09741 eV
Two Electron Energy:          980.56835673 Eh           26682.62150 eV
Max COSX asymmetry :            0.00003471 Eh               0.00094 eV

Virial components:
Potential Energy   :        -1418.63184872 Eh          -38602.93514 eV
Kinetic Energy     :          691.46368640 Eh           18815.68348 eV
Virial Ratio       :            2.05163608


DFT components:
N(Alpha)           :       49.000258267030 electrons
N(Beta)            :       49.000258267030 electrons
N(Total)           :       98.000516534059 electrons
E(X)               :      -68.563938457106 Eh       
E(C)               :       -3.990850288123 Eh       
E(XC)              :      -72.554788745230 Eh       
DFET-embed. en.    :        0.000000000000 Eh       

---------------
SCF CONVERGENCE
---------------

  Last Energy change         ...   -1.5074e-09  Tolerance :   1.0000e-08
  Last MAX-Density change    ...    0.0000e+00  Tolerance :   1.0000e-07
  Last RMS-Density change    ...    0.0000e+00  Tolerance :   5.0000e-09
  Last DIIS Error            ...    2.8319e-06  Tolerance :   5.0000e-07

             **** THE GBW FILE WAS UPDATED (HfCO6-2.gbw) ****
             **** DENSITY HfCO6-2.scfp WAS UPDATED ****
             **** ENERGY FILE WAS UPDATED (HfCO6-2.en.tmp) ****
             **** THE GBW FILE WAS UPDATED (HfCO6-2.gbw) ****
             **** DENSITY HfCO6-2.scfp WAS UPDATED ****
----------------
ORBITAL ENERGIES
----------------

  NO   OCC          E(Eh)            E(eV) 
   0   2.0000     -18.915243      -514.7099 
   1   2.0000     -18.915240      -514.7099 
   2   2.0000     -18.915195      -514.7086 
   3   2.0000     -18.915185      -514.7083 
   4   2.0000     -18.915182      -514.7083 
   5   2.0000     -18.915176      -514.7081 
   6   2.0000      -9.977145      -271.4919 
   7   2.0000      -9.977140      -271.4918 
   8   2.0000      -9.977085      -271.4903 
   9   2.0000      -9.977084      -271.4902 
  10   2.0000      -9.977083      -271.4902 
  11   2.0000      -9.976970      -271.4871 
  12   2.0000      -2.070053       -56.3290 
  13   2.0000      -0.917915       -24.9777 
  14   2.0000      -0.917901       -24.9774 
  15   2.0000      -0.917890       -24.9770 
  16   2.0000      -0.836193       -22.7540 
  17   2.0000      -0.835899       -22.7460 
  18   2.0000      -0.835890       -22.7457 
  19   2.0000      -0.835821       -22.7439 
  20   2.0000      -0.835817       -22.7437 
  21   2.0000      -0.835807       -22.7435 
  22   2.0000      -0.271683        -7.3929 
  23   2.0000      -0.264086        -7.1861 
  24   2.0000      -0.264083        -7.1861 
  25   2.0000      -0.263502        -7.1702 
  26   2.0000      -0.263495        -7.1701 
  27   2.0000      -0.263485        -7.1698 
  28   2.0000      -0.173136        -4.7113 
  29   2.0000      -0.173125        -4.7110 
  30   2.0000      -0.173120        -4.7108 
  31   2.0000      -0.169801        -4.6205 
  32   2.0000      -0.169785        -4.6201 
  33   2.0000      -0.169771        -4.6197 
  34   2.0000      -0.167418        -4.5557 
  35   2.0000      -0.167405        -4.5553 
  36   2.0000      -0.167391        -4.5550 
  37   2.0000      -0.164768        -4.4836 
  38   2.0000      -0.164768        -4.4836 
  39   2.0000      -0.164767        -4.4835 
  40   2.0000      -0.159104        -4.3294 
  41   2.0000      -0.106403        -2.8954 
  42   2.0000      -0.106390        -2.8950 
  43   2.0000      -0.079978        -2.1763 
  44   2.0000      -0.079899        -2.1742 
  45   2.0000      -0.079822        -2.1721 
  46   2.0000       0.148055         4.0288 
  47   2.0000       0.148126         4.0307 
  48   2.0000       0.148139         4.0311 
  49   0.0000       0.236501         6.4355 
  50   0.0000       0.241905         6.5826 
  51   0.0000       0.241907         6.5826 
  52   0.0000       0.241913         6.5828 
  53   0.0000       0.261359         7.1119 
  54   0.0000       0.261364         7.1121 
  55   0.0000       0.262535         7.1440 
  56   0.0000       0.262591         7.1455 
  57   0.0000       0.262655         7.1472 
  58   0.0000       0.271734         7.3942 
  59   0.0000       0.271807         7.3962 
  60   0.0000       0.271880         7.3982 
  61   0.0000       0.297724         8.1015 
  62   0.0000       0.297795         8.1034 
  63   0.0000       0.297833         8.1044 
  64   0.0000       0.303259         8.2521 
  65   0.0000       0.303306         8.2534 
  66   0.0000       0.303342         8.2543 
  67   0.0000       0.304634         8.2895 
  68   0.0000       0.304656         8.2901 
  69   0.0000       0.304661         8.2903 
  70   0.0000       0.321167         8.7394 
  71   0.0000       0.341310         9.2875 
  72   0.0000       0.341353         9.2887 
  73   0.0000       0.341413         9.2903 
  74   0.0000       0.373087        10.1522 
  75   0.0000       0.373117        10.1530 
  76   0.0000       0.373121        10.1532 
  77   0.0000       0.393060        10.6957 
  78   0.0000       0.393061        10.6957 
  79   0.0000       0.396045        10.7769 
  80   0.0000       0.396167        10.7802 
  81   0.0000       0.396267        10.7830 
  82   0.0000       0.415853        11.3159 
  83   0.0000       0.415866        11.3163 
  84   0.0000       0.415876        11.3166 
  85   0.0000       0.441957        12.0263 
  86   0.0000       0.449934        12.2433 
  87   0.0000       0.460255        12.5242 
  88   0.0000       0.460290        12.5251 
  89   0.0000       0.460309        12.5256 
  90   0.0000       0.468694        12.7538 
  91   0.0000       0.468758        12.7556 
  92   0.0000       0.506868        13.7926 
  93   0.0000       0.506918        13.7939 
  94   0.0000       0.506952        13.7949 
  95   0.0000       0.523761        14.2523 
  96   0.0000       0.523779        14.2527 
  97   0.0000       0.531299        14.4574 
  98   0.0000       0.531446        14.4614 
  99   0.0000       0.531661        14.4672 
 100   0.0000       0.542158        14.7529 
 101   0.0000       0.563390        15.3306 
 102   0.0000       0.563414        15.3313 
 103   0.0000       0.563436        15.3319 
 104   0.0000       0.590580        16.0705 
 105   0.0000       0.600008        16.3270 
 106   0.0000       0.600347        16.3363 
 107   0.0000       0.600612        16.3435 
 108   0.0000       0.616627        16.7793 
 109   0.0000       0.616657        16.7801 
 110   0.0000       0.622329        16.9344 
 111   0.0000       0.622369        16.9355 
 112   0.0000       0.668171        18.1819 
 113   0.0000       0.668443        18.1893 
 114   0.0000       0.668775        18.1983 
 115   0.0000       0.674138        18.3442 
 116   0.0000       0.707222        19.2445 
 117   0.0000       0.707342        19.2478 
 118   0.0000       0.707445        19.2506 
 119   0.0000       0.720591        19.6083 
 120   0.0000       0.720693        19.6111 
 121   0.0000       0.720805        19.6141 
 122   0.0000       0.723588        19.6898 
 123   0.0000       0.723619        19.6907 
 124   0.0000       0.723624        19.6908 
 125   0.0000       0.727780        19.8039 
 126   0.0000       0.727820        19.8050 
 127   0.0000       0.762577        20.7508 
 128   0.0000       0.762693        20.7539 
 129   0.0000       0.762795        20.7567 
 130   0.0000       0.764714        20.8089 
 131   0.0000       0.764772        20.8105 
 132   0.0000       0.764789        20.8110 
 133   0.0000       0.789995        21.4969 
 134   0.0000       0.791947        21.5500 
 135   0.0000       0.816144        22.2084 
 136   0.0000       0.816291        22.2124 
 137   0.0000       0.816437        22.2164 
 138   0.0000       0.827824        22.5262 
 139   0.0000       0.827972        22.5303 
 140   0.0000       0.828127        22.5345 
 141   0.0000       0.829853        22.5814 
 142   0.0000       0.829855        22.5815 
 143   0.0000       0.829861        22.5817 
 144   0.0000       0.850151        23.1338 
 145   0.0000       0.850425        23.1412 
 146   0.0000       0.850812        23.1518 
 147   0.0000       0.867613        23.6090 
 148   0.0000       0.867647        23.6099 
 149   0.0000       0.896231        24.3877 
 150   0.0000       0.896244        24.3880 
 151   0.0000       0.896246        24.3881 
 152   0.0000       0.912205        24.8224 
 153   0.0000       0.912377        24.8270 
 154   0.0000       0.912446        24.8289 
 155   0.0000       0.918441        24.9920 
 156   0.0000       0.918493        24.9935 
 157   0.0000       0.923197        25.1215 
 158   0.0000       0.923420        25.1275 
 159   0.0000       0.923642        25.1336 
 160   0.0000       0.978037        26.6137 
 161   0.0000       0.978143        26.6166 
 162   0.0000       1.000499        27.2250 
 163   0.0000       1.046224        28.4692 
 164   0.0000       1.046331        28.4721 
 165   0.0000       1.046432        28.4749 
 166   0.0000       1.052939        28.6519 
 167   0.0000       1.142054        31.0769 
 168   0.0000       1.142198        31.0808 
 169   0.0000       1.142334        31.0845 
 170   0.0000       1.142693        31.0942 
 171   0.0000       1.142913        31.1002 
 172   0.0000       1.162383        31.6300 
 173   0.0000       1.184868        32.2419 
 174   0.0000       1.184945        32.2440 
 175   0.0000       1.204363        32.7724 
 176   0.0000       1.204400        32.7734 
 177   0.0000       1.204432        32.7743 
 178   0.0000       1.218037        33.1445 
 179   0.0000       1.230103        33.4728 
 180   0.0000       1.230110        33.4730 
 181   0.0000       1.230134        33.4736 
 182   0.0000       1.249083        33.9893 
 183   0.0000       1.249383        33.9974 
 184   0.0000       1.249663        34.0051 
 185   0.0000       1.273955        34.6661 
 186   0.0000       1.274175        34.6721 
 187   0.0000       1.274273        34.6747 
 188   0.0000       1.279690        34.8221 
 189   0.0000       1.326580        36.0981 
 190   0.0000       1.377393        37.4808 
 191   0.0000       1.377418        37.4815 
 192   0.0000       1.429333        38.8941 
 193   0.0000       1.429393        38.8958 
 194   0.0000       1.429461        38.8976 
 195   0.0000       1.472747        40.0755 
 196   0.0000       1.473050        40.0837 
 197   0.0000       1.473335        40.0915 
 198   0.0000       1.505606        40.9696 
 199   0.0000       1.505636        40.9704 
 200   0.0000       1.505711        40.9725 
 201   0.0000       1.612960        43.8909 
 202   0.0000       1.613026        43.8927 
 203   0.0000       1.769441        48.1489 
 204   0.0000       1.790341        48.7176 
 205   0.0000       1.790581        48.7242 
 206   0.0000       1.790821        48.7307 
 207   0.0000       1.798644        48.9436 
 208   0.0000       1.798812        48.9482 
 209   0.0000       1.798960        48.9522 
 210   0.0000       1.805814        49.1387 
 211   0.0000       1.805817        49.1388 
 212   0.0000       1.805825        49.1390 
 213   0.0000       1.817327        49.4520 
 214   0.0000       1.817342        49.4524 
 215   0.0000       1.846400        50.2431 
 216   0.0000       1.846572        50.2478 
 217   0.0000       1.846760        50.2529 
 218   0.0000       1.861997        50.6675 
 219   0.0000       1.862346        50.6770 
 220   0.0000       1.862752        50.6880 
 221   0.0000       2.073411        56.4204 
 222   0.0000       2.077990        56.5450 
 223   0.0000       2.078038        56.5463 
 224   0.0000       2.078139        56.5490 
 225   0.0000       2.080807        56.6216 
 226   0.0000       2.081080        56.6291 
 227   0.0000       2.081368        56.6369 
 228   0.0000       2.096255        57.0420 
 229   0.0000       2.096265        57.0423 
 230   0.0000       2.100717        57.1634 
 231   0.0000       2.100874        57.1677 
 232   0.0000       2.101036        57.1721 
 233   0.0000       2.156576        58.6834 
 234   0.0000       2.171053        59.0774 
 235   0.0000       2.171085        59.0782 
 236   0.0000       2.187273        59.5187 
 237   0.0000       2.187451        59.5236 
 238   0.0000       2.187457        59.5237 
 239   0.0000       2.232125        60.7392 
 240   0.0000       2.232153        60.7400 
 241   0.0000       2.232156        60.7400 
 242   0.0000       2.232191        60.7410 
 243   0.0000       2.232310        60.7442 
 244   0.0000       2.232555        60.7509 
 245   0.0000       2.280534        62.0565 
 246   0.0000       2.280713        62.0614 
 247   0.0000       2.280935        62.0674 
 248   0.0000       2.282710        62.1157 
 249   0.0000       2.340256        63.6816 
 250   0.0000       2.340698        63.6936 
 251   0.0000       2.341145        63.7058 
 252   0.0000       2.390924        65.0603 
 253   0.0000       2.390934        65.0606 
 254   0.0000       2.526582        68.7518 
 255   0.0000       2.856885        77.7398 
 256   0.0000       2.856888        77.7399 
 257   0.0000       2.997896        81.5769 
 258   0.0000       3.080333        83.8201 
 259   0.0000       3.104427        84.4758 
 260   0.0000       3.104500        84.4777 
 261   0.0000       3.104559        84.4793 
 262   0.0000       3.112146        84.6858 
 263   0.0000       3.112340        84.6911 
 264   0.0000       3.112583        84.6977 
 265   0.0000       3.121549        84.9417 
 266   0.0000       3.121556        84.9419 
 267   0.0000       3.131666        85.2170 
 268   0.0000       3.131685        85.2175 
 269   0.0000       3.170768        86.2810 
 270   0.0000       3.232121        87.9505 
 271   0.0000       3.232124        87.9506 
 272   0.0000       3.232140        87.9510 
 273   0.0000       3.489058        94.9421 
 274   0.0000       3.489062        94.9422 
 275   0.0000       3.489080        94.9427 
 276   0.0000       3.504385        95.3592 
 277   0.0000       3.504452        95.3610 
 278   0.0000       3.504476        95.3616 
 279   0.0000       3.531407        96.0945 
 280   0.0000       3.531415        96.0947 
 281   0.0000       3.531435        96.0952 
 282   0.0000       3.532281        96.1183 
 283   0.0000       3.532304        96.1189 
 284   0.0000       3.532343        96.1199 
 285   0.0000       4.104446       111.6876 
 286   0.0000       4.104567       111.6909 
 287   0.0000       4.104570       111.6910 
 288   0.0000       4.123968       112.2189 
 289   0.0000       4.124005       112.2199 
 290   0.0000       4.124056       112.2213 
 291   0.0000      73.308105      1994.8150 
 292   0.0000     708.137640     19269.4048 

                    ********************************
                    * MULLIKEN POPULATION ANALYSIS *
                    ********************************

-----------------------
MULLIKEN ATOMIC CHARGES
-----------------------
   0 Hf:   -0.799620
   1 C :    0.137065
   2 C :    0.137489
   3 C :    0.137095
   4 C :    0.137472
   5 O :   -0.336910
   6 O :   -0.337633
   7 O :   -0.336899
   8 O :   -0.337557
   9 C :    0.137291
  10 C :    0.137236
  11 O :   -0.337498
  12 O :   -0.337531
Sum of atomic charges:   -2.0000000

--------------------------------
MULLIKEN REDUCED ORBITAL CHARGES
--------------------------------
  0 Hfs       :     2.977518  s :     2.977518
      pz      :     2.056046  p :     6.168714
      px      :     2.055788
      py      :     2.056880
      dz2     :     0.502463  d :     3.598175
      dxz     :     0.857329
      dyz     :     0.870497
      dx2y2   :     0.498876
      dxy     :     0.869010
      f0      :     0.016282  f :     0.055213
      f+1     :     0.007563
      f-1     :     0.007280
      f+2     :     0.002085
      f-2     :     0.000061
      f+3     :     0.010868
      f-3     :     0.011074
  1 C s       :     3.523337  s :     3.523337
      pz      :     0.628088  p :     2.236909
      px      :     0.983489
      py      :     0.625332
      dz2     :     0.006608  d :     0.102689
      dxz     :     0.036843
      dyz     :     0.001880
      dx2y2   :     0.020246
      dxy     :     0.037113
  2 C s       :     3.522902  s :     3.522902
      pz      :     0.624992  p :     2.236494
      px      :     0.625281
      py      :     0.986220
      dz2     :     0.006249  d :     0.103115
      dxz     :     0.001578
      dyz     :     0.037473
      dx2y2   :     0.020395
      dxy     :     0.037421
  3 C s       :     3.523271  s :     3.523271
      pz      :     0.628063  p :     2.236929
      px      :     0.983545
      py      :     0.625322
      dz2     :     0.006606  d :     0.102705
      dxz     :     0.036852
      dyz     :     0.001882
      dx2y2   :     0.020241
      dxy     :     0.037124
  4 C s       :     3.522909  s :     3.522909
      pz      :     0.624970  p :     2.236501
      px      :     0.625297
      py      :     0.986233
      dz2     :     0.006246  d :     0.103119
      dxz     :     0.001577
      dyz     :     0.037473
      dx2y2   :     0.020396
      dxy     :     0.037426
  5 O s       :     3.775167  s :     3.775167
      pz      :     1.587998  p :     4.486200
      px      :     1.587710
      py      :     1.310493
      dz2     :     0.005014  d :     0.075542
      dxz     :     0.000293
      dyz     :     0.027628
      dx2y2   :     0.015002
      dxy     :     0.027605
  6 O s       :     3.775966  s :     3.775966
      pz      :     1.585700  p :     4.486145
      px      :     1.312708
      py      :     1.587738
      dz2     :     0.005443  d :     0.075521
      dxz     :     0.027211
      dyz     :     0.000523
      dx2y2   :     0.014965
      dxy     :     0.027380
  7 O s       :     3.775168  s :     3.775168
      pz      :     1.587991  p :     4.486188
      px      :     1.587704
      py      :     1.310493
      dz2     :     0.005012  d :     0.075544
      dxz     :     0.000293
      dyz     :     0.027630
      dx2y2   :     0.015005
      dxy     :     0.027604
  8 O s       :     3.775959  s :     3.775959
      pz      :     1.585654  p :     4.486068
      px      :     1.312731
      py      :     1.587684
      dz2     :     0.005444  d :     0.075530
      dxz     :     0.027212
      dyz     :     0.000523
      dx2y2   :     0.014971
      dxy     :     0.027379
  9 C s       :     3.523091  s :     3.523091
      pz      :     0.983597  p :     2.236841
      px      :     0.628292
      py      :     0.624952
      dz2     :     0.027592  d :     0.102777
      dxz     :     0.036777
      dyz     :     0.037179
      dx2y2   :    -0.000646
      dxy     :     0.001874
 10 C s       :     3.523163  s :     3.523163
      pz      :     0.983567  p :     2.236833
      px      :     0.628300
      py      :     0.624966
      dz2     :     0.027597  d :     0.102768
      dxz     :     0.036771
      dyz     :     0.037173
      dx2y2   :    -0.000646
      dxy     :     0.001873
 11 O s       :     3.775866  s :     3.775866
      pz      :     1.312598  p :     4.486105
      px      :     1.585544
      py      :     1.587963
      dz2     :     0.020122  d :     0.075528
      dxz     :     0.027208
      dyz     :     0.027413
      dx2y2   :     0.000274
      dxy     :     0.000511
 12 O s       :     3.775864  s :     3.775864
      pz      :     1.312581  p :     4.486143
      px      :     1.585574
      py      :     1.587988
      dz2     :     0.020119  d :     0.075523
      dxz     :     0.027207
      dyz     :     0.027413
      dx2y2   :     0.000274
      dxy     :     0.000510


                     *******************************
                     * LOEWDIN POPULATION ANALYSIS *
                     *******************************

----------------------
LOEWDIN ATOMIC CHARGES
----------------------
   0 Hf:   -0.201003
   1 C :   -0.017760
   2 C :   -0.017716
   3 C :   -0.017760
   4 C :   -0.017719
   5 O :   -0.282091
   6 O :   -0.282131
   7 O :   -0.282078
   8 O :   -0.282050
   9 C :   -0.017752
  10 C :   -0.017753
  11 O :   -0.282072
  12 O :   -0.282116

-------------------------------
LOEWDIN REDUCED ORBITAL CHARGES
-------------------------------
  0 Hfs       :     2.046528  s :     2.046528
      pz      :     2.232768  p :     6.698424
      px      :     2.232828
      py      :     2.232828
      dz2     :     0.601117  d :     3.248456
      dxz     :     0.680579
      dyz     :     0.683538
      dx2y2   :     0.600050
      dxy     :     0.683173
      f0      :     0.063008  f :     0.207594
      f+1     :     0.028031
      f-1     :     0.026925
      f+2     :     0.006068
      f-2     :     0.000162
      f+3     :     0.041276
      f-3     :     0.042124
  1 C s       :     3.057906  s :     3.057906
      pz      :     0.617304  p :     2.312277
      px      :     1.081083
      py      :     0.613890
      dz2     :     0.064978  d :     0.647577
      dxz     :     0.199285
      dyz     :     0.015764
      dx2y2   :     0.168693
      dxy     :     0.198858
  2 C s       :     3.057885  s :     3.057885
      pz      :     0.613480  p :     2.312216
      px      :     0.613881
      py      :     1.084855
      dz2     :     0.063041  d :     0.647615
      dxz     :     0.014130
      dyz     :     0.200296
      dx2y2   :     0.169788
      dxy     :     0.200361
  3 C s       :     3.057891  s :     3.057891
      pz      :     0.617294  p :     2.312301
      px      :     1.081114
      py      :     0.613893
      dz2     :     0.064975  d :     0.647567
      dxz     :     0.199282
      dyz     :     0.015767
      dx2y2   :     0.168691
      dxy     :     0.198852
  4 C s       :     3.057880  s :     3.057880
      pz      :     0.613470  p :     2.312222
      px      :     0.613888
      py      :     1.084864
      dz2     :     0.063040  d :     0.647617
      dxz     :     0.014129
      dyz     :     0.200309
      dx2y2   :     0.169788
      dxy     :     0.200351
  5 O s       :     3.492970  s :     3.492970
      pz      :     1.476210  p :     4.554213
      px      :     1.476285
      py      :     1.601718
      dz2     :     0.030876  d :     0.234908
      dxz     :     0.000115
      dyz     :     0.055641
      dx2y2   :     0.092458
      dxy     :     0.055817
  6 O s       :     3.492993  s :     3.492993
      pz      :     1.477185  p :     4.554214
      px      :     1.600703
      py      :     1.476326
      dz2     :     0.030736  d :     0.234924
      dxz     :     0.056821
      dyz     :     0.000562
      dx2y2   :     0.091431
      dxy     :     0.055373
  7 O s       :     3.492963  s :     3.492963
      pz      :     1.476190  p :     4.554206
      px      :     1.476292
      py      :     1.601724
      dz2     :     0.030877  d :     0.234908
      dxz     :     0.000115
      dyz     :     0.055637
      dx2y2   :     0.092458
      dxy     :     0.055822
  8 O s       :     3.492956  s :     3.492956
      pz      :     1.477141  p :     4.554170
      px      :     1.600741
      py      :     1.476288
      dz2     :     0.030737  d :     0.234924
      dxz     :     0.056818
      dyz     :     0.000563
      dx2y2   :     0.091430
      dxy     :     0.055376
  9 C s       :     3.057891  s :     3.057891
      pz      :     1.081272  p :     2.312285
      px      :     0.617560
      py      :     0.613452
      dz2     :     0.222412  d :     0.647576
      dxz     :     0.199418
      dyz     :     0.198885
      dx2y2   :     0.011193
      dxy     :     0.015669
 10 C s       :     3.057898  s :     3.057898
      pz      :     1.081255  p :     2.312272
      px      :     0.617558
      py      :     0.613459
      dz2     :     0.222416  d :     0.647583
      dxz     :     0.199420
      dyz     :     0.198888
      dx2y2   :     0.011191
      dxy     :     0.015667
 11 O s       :     3.492965  s :     3.492965
      pz      :     1.600778  p :     4.554185
      px      :     1.477218
      py      :     1.476189
      dz2     :     0.121732  d :     0.234922
      dxz     :     0.056945
      dyz     :     0.055212
      dx2y2   :     0.000494
      dxy     :     0.000539
 12 O s       :     3.492984  s :     3.492984
      pz      :     1.600758  p :     4.554209
      px      :     1.477239
      py      :     1.476212
      dz2     :     0.121733  d :     0.234922
      dxz     :     0.056943
      dyz     :     0.055214
      dx2y2   :     0.000493
      dxy     :     0.000539


                      *****************************
                      * MAYER POPULATION ANALYSIS *
                      *****************************

  NA   - Mulliken gross atomic population
  ZA   - Total nuclear charge
  QA   - Mulliken gross atomic charge
  VA   - Mayer's total valence
  BVA  - Mayer's bonded valence
  FA   - Mayer's free valence

  ATOM       NA         ZA         QA         VA         BVA        FA
  0 Hf    12.7996    12.0000    -0.7996     5.8408     5.8408    -0.0000
  1 C      5.8629     6.0000     0.1371     3.2882     3.2882    -0.0000
  2 C      5.8625     6.0000     0.1375     3.2947     3.2947    -0.0000
  3 C      5.8629     6.0000     0.1371     3.2882     3.2882     0.0000
  4 C      5.8625     6.0000     0.1375     3.2947     3.2947    -0.0000
  5 O      8.3369     8.0000    -0.3369     2.3753     2.3753    -0.0000
  6 O      8.3376     8.0000    -0.3376     2.3739     2.3739    -0.0000
  7 O      8.3369     8.0000    -0.3369     2.3754     2.3754    -0.0000
  8 O      8.3376     8.0000    -0.3376     2.3741     2.3741    -0.0000
  9 C      5.8627     6.0000     0.1373     3.2892     3.2892    -0.0000
 10 C      5.8628     6.0000     0.1372     3.2891     3.2891    -0.0000
 11 O      8.3375     8.0000    -0.3375     2.3743     2.3743    -0.0000
 12 O      8.3375     8.0000    -0.3375     2.3741     2.3741    -0.0000

  Mayer bond orders larger than 0.100000
B(  0-Hf,  1-C ) :   0.8541 B(  0-Hf,  2-C ) :   0.8584 B(  0-Hf,  3-C ) :   0.8539 
B(  0-Hf,  4-C ) :   0.8583 B(  0-Hf,  5-O ) :   0.1176 B(  0-Hf,  6-O ) :   0.1180 
B(  0-Hf,  7-O ) :   0.1176 B(  0-Hf,  8-O ) :   0.1180 B(  0-Hf,  9-C ) :   0.8546 
B(  0-Hf, 10-C ) :   0.8546 B(  0-Hf, 11-O ) :   0.1179 B(  0-Hf, 12-O ) :   0.1179 
B(  1-C ,  3-C ) :   0.2138 B(  1-C ,  6-O ) :   2.1297 B(  2-C ,  4-C ) :   0.2133 
B(  2-C ,  5-O ) :   2.1316 B(  3-C ,  8-O ) :   2.1299 B(  4-C ,  7-O ) :   2.1317 
B(  9-C , 10-C ) :   0.2138 B(  9-C , 11-O ) :   2.1302 B( 10-C , 12-O ) :   2.1300 


-------
TIMINGS
-------

Total SCF time: 0 days 0 hours 1 min 3 sec 

Total time                  ....      63.769 sec
Sum of individual times     ....      63.000 sec  ( 98.8%)

Fock matrix formation       ....      55.736 sec  ( 87.4%)
  Split-RI-J                ....       4.332 sec  (  7.8% of F)
  Chain of spheres X        ....      39.333 sec  ( 70.6% of F)
  XC integration            ....      10.727 sec  ( 19.2% of F)
    Basis function eval.    ....       1.905 sec  ( 17.8% of XC)
    Density eval.           ....       4.574 sec  ( 42.6% of XC)
    XC-Functional eval.     ....       0.243 sec  (  2.3% of XC)
    XC-Potential eval.      ....       2.322 sec  ( 21.6% of XC)
Diagonalization             ....       1.220 sec  (  1.9%)
Density matrix formation    ....       0.031 sec  (  0.0%)
Population analysis         ....       0.083 sec  (  0.1%)
Initial guess               ....       3.531 sec  (  5.5%)
Orbital Transformation      ....       0.000 sec  (  0.0%)
Orbital Orthonormalization  ....       0.000 sec  (  0.0%)
DIIS solution               ....       0.776 sec  (  1.2%)
Grid generation             ....       1.623 sec  (  2.5%)

Maximum memory used throughout the entire SCF-calculation: 76.6 MB

-------------------------   --------------------
FINAL SINGLE POINT ENERGY      -727.168162317640
-------------------------   --------------------



           ************************************************************
           *        Program running with 8 parallel MPI-processes     *
           *              working on a common directory               *
           ************************************************************
------------------------------------------------------------------------------
                         ORCA SCF GRADIENT CALCULATION
------------------------------------------------------------------------------

 ... reading COSX grid (gridx3)
Gradient of the Kohn-Sham DFT energy:
Kohn-Sham wavefunction type      ... RKS
Hartree-Fock exchange scaling    ...    0.200
Number of operators              ...    1
Number of atoms                  ...   13
Basis set dimensions             ...  293
Integral neglect threshold       ... 2.5e-11
Integral primitive cutoff        ... 2.5e-12
SHARK Integral package           ... ON

Nuc. rep. gradient       (SHARK) ... done (  0.0 sec)
HCore & Overlap gradient (SHARK) ... done (  0.1 sec)
ECP gradient             (SHARK) ... done (  2.1 sec)
RI-J gradient            (SHARK) ... done (  0.8 sec)
COSX-gradient                    ... done (  5.2 sec)
Exchange-correlation gradient    ... done

------------------
CARTESIAN GRADIENT
------------------

   1   Hf  :   -0.000001138   -0.000001211   -0.000000035
   2   C   :    0.122098842   -0.003750108   -0.010941802
   3   C   :    0.003807616    0.122615605    0.000175280
   4   C   :   -0.122286096    0.003797119    0.010958023
   5   C   :   -0.003799392   -0.122646326   -0.000174995
   6   O   :   -0.003408206   -0.111101333   -0.000159621
   7   O   :   -0.110588194    0.003341337    0.009932090
   8   O   :    0.003400304    0.111133438    0.000159412
   9   O   :    0.110775212   -0.003386657   -0.009948185
  10   C   :   -0.011332493    0.000517619   -0.122215951
  11   C   :    0.011314117   -0.000558773    0.122113555
  12   O   :    0.010253737   -0.000454778    0.110775983
  13   O   :   -0.010235626    0.000493887   -0.110673444

Difference to translation invariance:
           :   -0.0000013164   -0.0000001822    0.0000003102

Difference to rotation invariance:
           :    0.0000702714    0.0000815845   -0.0008986284

Norm of the cartesian gradient     ...    0.4055986716
RMS gradient                       ...    0.0649477665
MAX gradient                       ...    0.1226463259

-------
TIMINGS
-------

Total SCF gradient time            ...       11.825 sec

One electron gradient       ....       2.177 sec  ( 18.4%)
RI-J Coulomb gradient       ....       0.838 sec  (  7.1%)
COSX gradient               ....       5.200 sec  ( 44.0%)
XC gradient                 ....       2.686 sec  ( 22.7%)

Maximum memory used throughout the entire SCFGRAD-calculation: 49.6 MB
------------------------------------------------------------------------------
                         ORCA GEOMETRY RELAXATION STEP
------------------------------------------------------------------------------

Reading the OPT-File                    .... done
Getting information on internals        .... done
Copying old internal coords+grads       .... done
Making the new internal coordinates     .... (new redundants).... done
Validating the new internal coordinates .... (new redundants).... done
Calculating the B-matrix                .... done
Calculating the G,G- and P matrices     .... done
Transforming gradient to internals      .... done
Projecting the internal gradient        .... done
Number of atoms                         ....  13
Number of internal coordinates          ....  36
Current Energy                          ....  -727.168162318 Eh
Current gradient norm                   ....     0.405598672 Eh/bohr
Maximum allowed component of the step   ....  0.300
Current trust radius                    ....  0.300
Evaluating the initial hessian          ....  (Almloef) done
Projecting the Hessian                  .... done
Forming the augmented Hessian           .... done
Diagonalizing the augmented Hessian     .... done
Last element of RFO vector              ....  0.953206714
Lowest eigenvalues of augmented Hessian:
 -0.056144501  0.051675929  0.051678032  0.051680384  0.051681706
Length of the computed step             ....  0.317160272
Warning: the length of the step is outside the trust region - taking restricted step instead
The input lambda is                     ....    -0.056145
   iter:   1  x=   -0.064207  g=    1.313510 f(x)=     0.010591
   iter:   2  x=   -0.065191  g=    1.065514 f(x)=     0.001048
   iter:   3  x=   -0.065203  g=    1.039805 f(x)=     0.000013
   iter:   4  x=   -0.065203  g=    1.039490 f(x)=     0.000000
   iter:   5  x=   -0.065203  g=    1.039490 f(x)=     0.000000
The output lambda is                    ....    -0.065203 (5 iterations)
The final length of the internal step   ....  0.300000000
Converting the step to cartesian space:
 Initial RMS(Int)=    0.0500000000
Transforming coordinates:
 Iter   0:  RMS(Cart)=    0.0399916231 RMS(Int)=    0.0499999981
 Iter   1:  RMS(Cart)=    0.0000052629 RMS(Int)=    0.0000047483
 Iter   2:  RMS(Cart)=    0.0000019307 RMS(Int)=    0.0000018022
 Iter   3:  RMS(Cart)=    0.0000009903 RMS(Int)=    0.0000009232
 Iter   4:  RMS(Cart)=    0.0000005085 RMS(Int)=    0.0000004732
 Iter   5:  RMS(Cart)=    0.0000002610 RMS(Int)=    0.0000002425
 Iter   6:  RMS(Cart)=    0.0000001339 RMS(Int)=    0.0000001243
 Iter   7:  RMS(Cart)=    0.0000000687 RMS(Int)=    0.0000000637
done
Storing new coordinates                 .... done

                                .--------------------.
          ----------------------|Geometry convergence|-------------------------
          Item                value                   Tolerance       Converged
          ---------------------------------------------------------------------
          RMS gradient        0.0456331136            0.0001000000      NO
          MAX gradient        0.1112726653            0.0003000000      NO
          RMS step            0.0500000000            0.0020000000      NO
          MAX step            0.0989233543            0.0040000000      NO
          ........................................................
          Max(Bonds)      0.0523      Max(Angles)    0.01
          Max(Dihed)        0.00      Max(Improp)    0.00
          ---------------------------------------------------------------------

The optimization has not yet converged - more geometry cycles are needed


    ---------------------------------------------------------------------------
                         Redundant Internal Coordinates
                            (Angstroem and degrees)

        Definition                    Value    dE/dq     Step     New-Value
    ----------------------------------------------------------------------------
     1. B(C   1,Hf  0)                2.2984  0.011562 -0.0523    2.2461   
     2. B(C   2,Hf  0)                2.2984  0.011521 -0.0522    2.2463   
     3. B(C   3,Hf  0)                2.2985  0.011562 -0.0523    2.2461   
     4. B(C   4,Hf  0)                2.2984  0.011520 -0.0522    2.2463   
     5. B(O   5,C   2)                1.1280 -0.111154  0.0384    1.1664   
     6. B(O   6,C   1)                1.1280 -0.111083  0.0384    1.1665   
     7. B(O   7,C   4)                1.1280 -0.111186  0.0384    1.1664   
     8. B(O   8,C   3)                1.1280 -0.111273  0.0385    1.1664   
     9. B(C   9,Hf  0)                2.2985  0.011491 -0.0520    2.2464   
    10. B(C  10,Hf  0)                2.2984  0.011491 -0.0520    2.2464   
    11. B(O  11,C   9)                1.1280 -0.111250  0.0385    1.1664   
    12. B(O  12,C  10)                1.1280 -0.111147  0.0384    1.1665   
    13. A(C   3,Hf  0,C   9)           89.90 -0.000063    0.01     89.92   
    14. A(C   2,Hf  0,C   9)           90.00 -0.000013    0.00     90.01   
    15. A(C   1,Hf  0,C  10)           89.91 -0.000063    0.01     89.92   
    16. A(C   4,Hf  0,C  10)           89.99 -0.000013    0.00     89.99   
    17. A(C   2,Hf  0,C  10)           90.01  0.000013   -0.00     90.01   
    18. A(C   4,Hf  0,C   9)           90.00  0.000013   -0.00     89.99   
    19. A(C   3,Hf  0,C  10)           90.09  0.000064   -0.01     90.08   
    20. A(C   3,Hf  0,C   4)           90.01  0.000021   -0.00     90.00   
    21. A(C   1,Hf  0,C   2)           89.99  0.000021   -0.00     89.99   
    22. A(C   2,Hf  0,C   3)           89.99 -0.000021    0.00     90.00   
    23. A(C   1,Hf  0,C   4)           90.00 -0.000022    0.00     90.01   
    24. A(C   1,Hf  0,C   9)           90.10  0.000062   -0.01     90.08   
    25. L(Hf  0,C   1,O   6,C  10, 1) 179.97  0.000031   -0.00    179.96   
    26. L(Hf  0,C   1,O   6,C  10, 2) 180.01  0.000016   -0.00    180.00   
    27. L(Hf  0,C   2,O   5,C   1, 2) 180.00 -0.000005    0.00    180.00   
    28. L(Hf  0,C   2,O   5,C   1, 1) 180.00  0.000077   -0.01    179.99   
    29. L(Hf  0,C   3,O   8,C   9, 2) 180.01 -0.000015    0.00    180.01   
    30. L(Hf  0,C   3,O   8,C   9, 1) 179.97  0.000030   -0.00    179.96   
    31. L(Hf  0,C   4,O   7,C  10, 2) 180.00  0.000027   -0.00    180.00   
    32. L(Hf  0,C   4,O   7,C  10, 1) 180.00 -0.000012    0.00    180.00   
    33. L(Hf  0,C   9,O  11,C   3, 2) 180.01  0.000003   -0.00    180.01   
    34. L(Hf  0,C   9,O  11,C   3, 1) 179.97 -0.000032    0.00    179.97   
    35. L(Hf  0,C  10,O  12,C   1, 2) 180.01 -0.000002    0.00    180.01   
    36. L(Hf  0,C  10,O  12,C   1, 1) 179.97 -0.000031    0.00    179.97   
    ----------------------------------------------------------------------------

         *************************************************************
         *                GEOMETRY OPTIMIZATION CYCLE   2            *
         *************************************************************
---------------------------------
CARTESIAN COORDINATES (ANGSTROEM)
---------------------------------
  Hf    -0.437336    0.821142   -0.003267
  C      1.798553    0.753498   -0.206000
  C     -0.368681    3.066374   -0.000008
  C     -2.673253    0.889278    0.199459
  C     -0.505899   -1.424097   -0.006522
  O     -0.332801    4.232265    0.001669
  O      2.959783    0.718415   -0.310532
  O     -0.541526   -2.589992   -0.008238
  O     -3.834447    0.924787    0.303980
  C     -0.643209    0.830390   -2.240230
  C     -0.231589    0.811403    2.233680
  O     -0.750701    0.835136   -3.401700
  O     -0.124194    0.806233    3.395170

----------------------------
CARTESIAN COORDINATES (A.U.)
----------------------------
  NO LB      ZA    FRAG     MASS         X           Y           Z
   0 Hf   12.0000*   0   178.490   -0.826446    1.551733   -0.006173
   1 C     6.0000    0    12.011    3.398773    1.423905   -0.389284
   2 C     6.0000    0    12.011   -0.696706    5.794606   -0.000015
   3 C     6.0000    0    12.011   -5.051716    1.680491    0.376924
   4 C     6.0000    0    12.011   -0.956010   -2.691153   -0.012325
   5 O     8.0000    0    15.999   -0.628902    7.997821    0.003153
   6 O     8.0000    0    15.999    5.593180    1.357608   -0.586821
   7 O     8.0000    0    15.999   -1.023336   -4.894376   -0.015568
   8 O     8.0000    0    15.999   -7.246054    1.747593    0.574439
   9 C     6.0000    0    12.011   -1.215489    1.569210   -4.233421
  10 C     6.0000    0    12.011   -0.437640    1.533329    4.221043
  11 O     8.0000    0    15.999   -1.418620    1.578179   -6.428282
  12 O     8.0000    0    15.999   -0.234693    1.523560    6.415942
* core charge reduced due to ECP

--------------------------------
INTERNAL COORDINATES (ANGSTROEM)
--------------------------------
 Hf     0   0   0     0.000000000000     0.00000000     0.00000000
 C      1   0   0     2.246080916030     0.00000000     0.00000000
 C      1   2   0     2.246283684942    89.98898590     0.00000000
 C      1   2   3     2.246121712436   179.98746123     1.43082169
 C      1   2   3     2.246287520774    90.00865460   180.00028989
 O      3   1   2     1.166444451760   179.98872346   358.71020528
 O      2   1   3     1.166453196915   179.96277419    86.24521528
 O      5   1   2     1.166441012138   179.99825870   231.48453958
 O      4   1   2     1.166428972501   179.96219732    79.43799383
 C      1   2   3     2.246436095171    90.08433036    90.00746291
 C      1   2   3     2.246409410364    89.91843896   269.99485906
 O     10   1   2     1.166443270643   179.97055394   172.90039850
 O     11   1   2     1.166456537407   179.97184098   350.39654570

---------------------------
INTERNAL COORDINATES (A.U.)
[...]
     15       0.002136  -0.017505   0.045265   0.010298  -0.007682   0.009141
     16       0.005837  -0.488980  -0.028298   0.333667  -0.250197   0.296436
     17       0.046311  -0.000026  -0.001886   0.000492  -0.000440   0.000436
     18      -0.021161  -0.023913   0.486569   0.049343   0.409459   0.299699
     19       0.001146  -0.045455  -0.017296  -0.001058  -0.012603  -0.009131
     20       0.048539   0.002423  -0.041679  -0.003139  -0.036358  -0.027667
     21       0.002100  -0.017295   0.045596  -0.009643   0.007652  -0.009028
     22       0.005820  -0.489073  -0.023377  -0.331078   0.253850  -0.296470
     23       0.046134  -0.000080  -0.001907  -0.000459   0.000542  -0.000472
     24      -0.020318  -0.028086   0.486681  -0.044441  -0.410018  -0.299299
     25       0.001136  -0.045523  -0.017432   0.001147   0.013102   0.009169
     26       0.048342   0.002783  -0.041694   0.002793   0.036489   0.027615
     27       0.048207   0.006916  -0.076492   0.031188   0.012856  -0.025410
     28      -0.003003   0.078607   0.006237  -0.001535  -0.000561   0.000922
     29       0.478170   0.006439   0.029956   0.367557   0.160154  -0.275470
     30       0.048424   0.006570  -0.076112  -0.031900  -0.012700   0.025253
     31      -0.003191   0.078681   0.006213   0.001216   0.000047  -0.001080
     32       0.479382   0.002286   0.033893  -0.366486  -0.159400   0.275328
     33       0.041971  -0.003069   0.048140   0.036403   0.016080  -0.026752
     34      -0.001402  -0.046149  -0.003803  -0.001545  -0.000695   0.001288
     35       0.486850   0.007018   0.018824   0.383779   0.167160  -0.291775
     36       0.041983  -0.003487   0.048506  -0.035800  -0.016041   0.026783
     37      -0.001537  -0.046156  -0.003829   0.001907   0.001072  -0.001344
     38       0.488138   0.002634   0.022945  -0.382808  -0.166378   0.291613
                 24         25         26         27         28         29    
      0       0.000002   0.000002   0.000034  -0.000016   0.000179  -0.000019
      1       0.000002   0.000002   0.000028   0.000015  -0.000030  -0.000092
      2       0.000008   0.000033  -0.000002   0.000057  -0.000057   0.000011
      3      -0.041378  -0.000199   0.016652  -0.033941  -0.000002  -0.028146
      4       0.028654  -0.016711   0.470883   0.166605   0.048990  -0.428665
      5      -0.470125   0.003336   0.027659  -0.429823  -0.014595  -0.167179
      6       0.026546  -0.059757   0.468328   0.008634   0.458845   0.055669
      7      -0.000752   0.002543  -0.014214  -0.000895  -0.014055  -0.001894
      8      -0.006784  -0.469165  -0.059331   0.432846  -0.027750   0.162878
      9       0.041363   0.000218  -0.016988  -0.033886   0.000055  -0.028323
     10      -0.028662   0.016723  -0.471043   0.166552   0.048897  -0.428521
     11       0.470081  -0.003253  -0.027622  -0.429903  -0.014597  -0.167189
     12      -0.026557   0.059756  -0.468438   0.008610   0.458709   0.055763
     13       0.000730  -0.002572   0.013844  -0.000921  -0.013754  -0.001956
     14       0.006849   0.469074   0.059330   0.432958  -0.027739   0.162925
     15      -0.009157   0.020586  -0.161379  -0.003490  -0.185989  -0.022570
     16       0.000352  -0.000845   0.005255   0.000346   0.005939   0.000854
     17       0.002326   0.161791   0.020422  -0.175547   0.011262  -0.066045
     18       0.014648   0.000077  -0.005994   0.013535  -0.000250   0.011433
     19      -0.009847   0.005737  -0.162141  -0.067533  -0.019861   0.173800
     20       0.161918  -0.001169  -0.009526   0.174235   0.005925   0.067770
     21       0.009162  -0.020585   0.161426  -0.003483  -0.185944  -0.022597
     22      -0.000352   0.000851  -0.005264   0.000394   0.005868   0.000769
     23      -0.002365  -0.161745  -0.020422  -0.175583   0.011258  -0.066061
     24      -0.014647  -0.000079   0.005894   0.013517  -0.000205   0.011481
     25       0.009850  -0.005743   0.162213  -0.067515  -0.019842   0.173752
     26      -0.161896   0.001118   0.009533   0.174256   0.005919   0.067772
     27       0.469780   0.010917  -0.026282   0.026211  -0.460851  -0.027162
     28      -0.009917   0.472031   0.017519  -0.165967  -0.035230   0.431954
     29      -0.043530   0.000789   0.002498  -0.003183   0.042290   0.004205
     30      -0.469774  -0.010956   0.026371   0.026246  -0.460870  -0.027134
     31       0.009919  -0.472049  -0.017441  -0.166034  -0.035225   0.431916
     32       0.043449  -0.001120  -0.002514  -0.003251   0.042228   0.004384
     33      -0.161882  -0.003779   0.009046  -0.010646   0.186741   0.010987
     34       0.003434  -0.162707  -0.006081   0.067310   0.014257  -0.175141
     35       0.014369  -0.000459  -0.000833   0.001124  -0.016805  -0.001769
     36       0.161872   0.003774  -0.009100  -0.010662   0.186746   0.010978
     37      -0.003436   0.162715   0.006039   0.067325   0.014255  -0.175132
     38      -0.014402   0.000357   0.000836   0.001147  -0.016797  -0.001810
                 30         31         32         33         34         35    
      0      -0.001415   0.025592   0.065064  -0.000136   0.000021   0.000574
      1       0.049936  -0.045108   0.018847  -0.000017  -0.000583   0.000017
      2      -0.048884  -0.046860   0.017327   0.000568  -0.000012   0.000135
      3       0.019025   0.027388  -0.035046   0.175590  -0.040494  -0.536087
      4      -0.335513   0.296887  -0.138677  -0.005447  -0.001518   0.016501
      5       0.326577   0.295689  -0.153375  -0.013255   0.003611   0.049313
      6       0.019300  -0.180309  -0.432711   0.000002   0.017800   0.001569
      7      -0.014418   0.017007   0.007912   0.019918   0.566220  -0.035789
      8       0.328026   0.313521  -0.115759   0.002719   0.000747   0.000566
      9       0.018891   0.027508  -0.035109   0.175438  -0.040083  -0.535843
     10      -0.335441   0.296832  -0.138628  -0.005508  -0.001514   0.016693
     11       0.326591   0.295679  -0.153373  -0.013241   0.003574   0.049295
     12       0.019351  -0.180323  -0.432637  -0.000003   0.017477   0.001572
     13      -0.014450   0.016866   0.007678   0.020067   0.566179  -0.036241
     14       0.328060   0.313568  -0.115790   0.002726   0.000819   0.000562
     15      -0.007487   0.066134   0.157555  -0.000213  -0.013119  -0.000242
     16      -0.009580   0.006947  -0.009256  -0.014767  -0.419892   0.026515
     17      -0.119658  -0.114328   0.042198  -0.001089  -0.000573  -0.000208
     18      -0.007200  -0.019229  -0.005970  -0.130121   0.029993   0.397547
     19       0.122285  -0.107936   0.051120   0.003998   0.000182  -0.012164
     20      -0.118960  -0.106913   0.057567   0.010724  -0.002693  -0.036296
     21      -0.007496   0.066134   0.157535  -0.000208  -0.012879  -0.000246
     22      -0.009568   0.006999  -0.009172  -0.014874  -0.419863   0.026839
     23      -0.119669  -0.114341   0.042207  -0.001092  -0.000627  -0.000205
     24      -0.007170  -0.019263  -0.005966  -0.130012   0.029698   0.397372
     25       0.122263  -0.107914   0.051114   0.004044   0.000179  -0.012309
     26      -0.118968  -0.106914   0.057571   0.010715  -0.002666  -0.036283
     27      -0.019371  -0.196932  -0.421203  -0.050054   0.000804  -0.013537
     28      -0.332784   0.303135  -0.126459   0.002120  -0.002793   0.000816
     29       0.013654   0.031210   0.031964  -0.537273   0.007569  -0.176418
     30      -0.019378  -0.196921  -0.421216  -0.050011   0.000837  -0.013542
     31      -0.332793   0.303117  -0.126447   0.002320  -0.002798   0.000882
     32       0.013514   0.031314   0.031872  -0.537293   0.007932  -0.176636
     33       0.008377   0.072963   0.152854   0.036848  -0.000561   0.010935
     34       0.121279  -0.110570   0.046138  -0.001594   0.001120  -0.000571
     35       0.009646   0.001816  -0.018340   0.398455  -0.005625   0.130752
     36       0.008373   0.072956   0.152862   0.036815  -0.000585   0.010938
     37       0.121276  -0.110571   0.046137  -0.001744   0.001123  -0.000621
     38       0.009680   0.001791  -0.018317   0.398470  -0.005885   0.130909
                 36         37         38    
      0       0.000001   0.000001   0.000000
      1       0.000001  -0.000001  -0.000000
      2      -0.000000  -0.000000  -0.000000
      3      -0.098022   0.456150  -0.331625
      4       0.002981  -0.013891   0.010090
      5       0.008869  -0.041266   0.030004
      6      -0.010804  -0.009763  -0.010332
      7      -0.347820  -0.314090  -0.332920
      8      -0.000495  -0.000444  -0.000472
      9       0.097654  -0.456594   0.331621
     10      -0.003001   0.014078  -0.010212
     11      -0.008836   0.041309  -0.030006
     12       0.010599   0.009596   0.010150
     13       0.347482   0.314504   0.332927
     14       0.000539   0.000484   0.000512
     15       0.007762   0.007006   0.007332
     16       0.249862   0.225620   0.236008
     17       0.000354   0.000320   0.000335
     18       0.070409  -0.327646   0.235080
     19      -0.002145   0.009969  -0.007155
     20      -0.006373   0.029639  -0.021262
     21      -0.007613  -0.006887  -0.007198
     22      -0.249610  -0.225928  -0.236013
     23      -0.000386  -0.000349  -0.000364
     24      -0.070136   0.327977  -0.235077
     25       0.002162  -0.010102   0.007243
     26       0.006349  -0.029671   0.021264
     27      -0.040713   0.013155   0.030372
     28       0.001809  -0.000587  -0.001351
     29      -0.444462   0.143551   0.331555
     30       0.040670  -0.013131  -0.030344
     31      -0.001978   0.000636   0.001473
     32       0.444384  -0.143471  -0.331547
     33       0.029256  -0.009453  -0.021536
     34      -0.001300   0.000421   0.000957
     35       0.319286  -0.103117  -0.235047
     36      -0.029224   0.009437   0.021515
     37       0.001419  -0.000458  -0.001046
     38      -0.319229   0.103058   0.235042


-----------
IR SPECTRUM
-----------

 Mode   freq       eps      Int      T**2         TX        TY        TZ
       cm**-1   L/(mol*cm) km/mol    a.u.
----------------------------------------------------------------------------
  9:     41.14   0.000341    1.72  0.002583  (-0.031904  0.034278 -0.019760)
 10:     41.27   0.000340    1.72  0.002573  (-0.034561 -0.011812  0.035193)
 11:     41.38   0.000341    1.72  0.002568  ( 0.019178  0.035445  0.030727)
 12:     55.48   0.000000    0.00  0.000000  (-0.000000 -0.000005  0.000004)
 13:     55.64   0.000000    0.00  0.000000  (-0.000005 -0.000006 -0.000001)
 14:     55.67   0.000000    0.00  0.000000  (-0.000001  0.000000 -0.000005)
 15:    335.39   0.000000    0.00  0.000000  (-0.000001 -0.000002 -0.000004)
 16:    335.60   0.000000    0.00  0.000000  (-0.000001 -0.000007  0.000007)
 17:    335.65   0.000000    0.00  0.000000  ( 0.000004  0.000007  0.000005)
 18:    339.15   0.001804    9.11  0.001660  ( 0.001719  0.000392  0.040699)
 19:    339.25   0.001806    9.13  0.001661  (-0.003199 -0.040630  0.000513)
 20:    339.39   0.001800    9.10  0.001655  ( 0.040520 -0.003246 -0.001600)
 21:    340.14   0.000000    0.00  0.000000  ( 0.000238  0.000119  0.000026)
 22:    340.28   0.000000    0.00  0.000000  (-0.000017  0.000176  0.000039)
 23:    347.93   0.000000    0.00  0.000000  ( 0.000022 -0.000002 -0.000010)
 24:    407.12   0.000000    0.00  0.000000  (-0.000000 -0.000001 -0.000001)
 25:    407.31   0.000000    0.00  0.000000  (-0.000000 -0.000003 -0.000004)
 26:    407.44   0.000000    0.00  0.000000  (-0.000005 -0.000024  0.000000)
 27:    456.44   0.000000    0.00  0.000000  ( 0.000148 -0.000025  0.000001)
 28:    456.48   0.000000    0.00  0.000000  (-0.000116 -0.000048 -0.000029)
 29:    456.49   0.000000    0.00  0.000000  ( 0.000042  0.000099  0.000002)
 30:    512.85   0.004802   24.27  0.002922  ( 0.000956 -0.038629  0.037798)
 31:    512.88   0.004806   24.29  0.002924  (-0.019837  0.034922  0.036212)
 32:    512.89   0.004791   24.21  0.002915  (-0.050232 -0.014514 -0.013448)
 33:   1832.05   0.838755  4238.72  0.142870  ( 0.084325  0.011260 -0.368283)
 34:   1832.10   0.839084  4240.39  0.142922  (-0.014798  0.377673  0.008159)
 35:   1832.13   0.839300  4241.48  0.142956  (-0.368225 -0.012572 -0.084902)
 36:   1844.39   0.000000    0.00  0.000000  (-0.000168 -0.000157 -0.000008)
 37:   1844.45   0.000000    0.00  0.000000  (-0.000167  0.000194  0.000047)
 38:   1981.61   0.000000    0.00  0.000000  (-0.000016  0.000001  0.000007)

* The epsilon (eps) is given for a Dirac delta lineshape.
** The dipole moment derivative (T) already includes vibrational overlap.

The first frequency considered to be a vibration is 9
The total number of vibrations considered is 30


--------------------------
THERMOCHEMISTRY AT 298.15K
--------------------------

Temperature         ... 298.15 K
Pressure            ... 1.00 atm
Total Mass          ... 346.55 AMU

Throughout the following assumptions are being made:
  (1) The electronic state is orbitally nondegenerate
  (2) There are no thermally accessible electronically excited states
  (3) Hindered rotations indicated by low frequency modes are not
      treated as such but are treated as vibrations and this may
      cause some error
  (4) All equations used are the standard statistical mechanics
      equations for an ideal gas
  (5) All vibrations are strictly harmonic

freq.      41.14  E(vib)   ...       0.54 
freq.      41.27  E(vib)   ...       0.54 
freq.      41.38  E(vib)   ...       0.54 
freq.      55.48  E(vib)   ...       0.52 
freq.      55.64  E(vib)   ...       0.52 
freq.      55.67  E(vib)   ...       0.52 
freq.     335.39  E(vib)   ...       0.24 
freq.     335.60  E(vib)   ...       0.24 
freq.     335.65  E(vib)   ...       0.24 
freq.     339.15  E(vib)   ...       0.23 
freq.     339.25  E(vib)   ...       0.23 
freq.     339.39  E(vib)   ...       0.23 
freq.     340.14  E(vib)   ...       0.23 
freq.     340.28  E(vib)   ...       0.23 
freq.     347.93  E(vib)   ...       0.23 
freq.     407.12  E(vib)   ...       0.19 
freq.     407.31  E(vib)   ...       0.19 
freq.     407.44  E(vib)   ...       0.19 
freq.     456.44  E(vib)   ...       0.16 
freq.     456.48  E(vib)   ...       0.16 
freq.     456.49  E(vib)   ...       0.16 
freq.     512.85  E(vib)   ...       0.13 
freq.     512.88  E(vib)   ...       0.13 
freq.     512.89  E(vib)   ...       0.13 
freq.    1832.05  E(vib)   ...       0.00 
freq.    1832.10  E(vib)   ...       0.00 
freq.    1832.13  E(vib)   ...       0.00 
freq.    1844.39  E(vib)   ...       0.00 
freq.    1844.45  E(vib)   ...       0.00 
freq.    1981.61  E(vib)   ...       0.00 

------------
INNER ENERGY
------------

The inner energy is: U= E(el) + E(ZPE) + E(vib) + E(rot) + E(trans)
    E(el)   - is the total energy from the electronic structure calculation
              = E(kin-el) + E(nuc-el) + E(el-el) + E(nuc-nuc)
    E(ZPE)  - the the zero temperature vibrational energy from the frequency calculation
    E(vib)  - the the finite temperature correction to E(ZPE) due to population
              of excited vibrational states
    E(rot)  - is the rotational thermal energy
    E(trans)- is the translational thermal energy

Summary of contributions to the inner energy U:
Electronic energy                ...   -727.20259587 Eh
Zero point energy                ...      0.04246509 Eh      26.65 kcal/mol
Thermal vibrational correction   ...      0.01072352 Eh       6.73 kcal/mol
Thermal rotational correction    ...      0.00141627 Eh       0.89 kcal/mol
Thermal translational correction ...      0.00141627 Eh       0.89 kcal/mol
-----------------------------------------------------------------------
Total thermal energy                   -727.14657471 Eh


Summary of corrections to the electronic energy:
(perhaps to be used in another calculation)
Total thermal correction                  0.01355606 Eh       8.51 kcal/mol
Non-thermal (ZPE) correction              0.04246509 Eh      26.65 kcal/mol
-----------------------------------------------------------------------
Total correction                          0.05602115 Eh      35.15 kcal/mol


--------
ENTHALPY
--------

The enthalpy is H = U + kB*T
                kB is Boltzmann's constant
Total free energy                 ...   -727.14657471 Eh 
Thermal Enthalpy correction       ...      0.00094421 Eh       0.59 kcal/mol
-----------------------------------------------------------------------
Total Enthalpy                    ...   -727.14563050 Eh


Note: Only C1 symmetry has been detected, increase convergence thresholds 
      if your molecule has a higher symmetry. Symmetry factor of 1.0 is   
      used for the rotational entropy correction. 
 

Note: Rotational entropy computed according to Herzberg 
Infrared and Raman Spectra, Chapter V,1, Van Nostrand Reinhold, 1945 
Point Group:  C1, Symmetry Number:   1  
Rotational constants in cm-1:     0.017082     0.017077     0.017070 

Vibrational entropy computed according to the QRRHO of S. Grimme
Chem.Eur.J. 2012 18 9955


-------
ENTROPY
-------

The entropy contributions are T*S = T*(S(el)+S(vib)+S(rot)+S(trans))
     S(el)   - electronic entropy
     S(vib)  - vibrational entropy
     S(rot)  - rotational entropy
     S(trans)- translational entropy
The entropies will be listed as multiplied by the temperature to get
units of energy

Electronic entropy                ...      0.00000000 Eh      0.00 kcal/mol
Vibrational entropy               ...      0.01899035 Eh     11.92 kcal/mol
Rotational entropy                ...      0.01527511 Eh      9.59 kcal/mol
Translational entropy             ...      0.02063146 Eh     12.95 kcal/mol
-----------------------------------------------------------------------
Final entropy term                ...      0.05489692 Eh     34.45 kcal/mol

In case the symmetry of your molecule has not been determined correctly
or in case you have a reason to use a different symmetry number we print 
out the resulting rotational entropy values for sn=1,12 :
 --------------------------------------------------------
|  sn= 1 | S(rot)=       0.01527511 Eh      9.59 kcal/mol|
|  sn= 2 | S(rot)=       0.01462065 Eh      9.17 kcal/mol|
|  sn= 3 | S(rot)=       0.01423782 Eh      8.93 kcal/mol|
|  sn= 4 | S(rot)=       0.01396620 Eh      8.76 kcal/mol|
|  sn= 5 | S(rot)=       0.01375551 Eh      8.63 kcal/mol|
|  sn= 6 | S(rot)=       0.01358337 Eh      8.52 kcal/mol|
|  sn= 7 | S(rot)=       0.01343782 Eh      8.43 kcal/mol|
|  sn= 8 | S(rot)=       0.01331174 Eh      8.35 kcal/mol|
|  sn= 9 | S(rot)=       0.01320053 Eh      8.28 kcal/mol|
|  sn=10 | S(rot)=       0.01310105 Eh      8.22 kcal/mol|
|  sn=11 | S(rot)=       0.01301106 Eh      8.16 kcal/mol|
|  sn=12 | S(rot)=       0.01292891 Eh      8.11 kcal/mol|
 --------------------------------------------------------


-------------------
GIBBS FREE ENERGY
-------------------

The Gibbs free energy is G = H - T*S

Total enthalpy                    ...   -727.14563050 Eh 
Total entropy correction          ...     -0.05489692 Eh    -34.45 kcal/mol
-----------------------------------------------------------------------
Final Gibbs free energy         ...   -727.20052743 Eh

For completeness - the Gibbs free energy minus the electronic energy
G-E(el)                           ...      0.00206844 Eh      1.30 kcal/mol


Timings for individual modules:

Sum of individual times         ...      682.618 sec (=  11.377 min)
GTO integral calculation        ...        5.660 sec (=   0.094 min)   0.8 %
SCF iterations                  ...      222.511 sec (=   3.709 min)  32.6 %
SCF Gradient evaluation         ...       60.477 sec (=   1.008 min)   8.9 %
Geometry relaxation             ...        0.197 sec (=   0.003 min)   0.0 %
Analytical frequency calculation...      393.773 sec (=   6.563 min)  57.7 %
                             ****ORCA TERMINATED NORMALLY****
TOTAL RUN TIME: 0 days 0 hours 11 minutes 23 seconds 670 msec
