
                                 *****************
                                 * O   R   C   A *
                                 *****************

                                            #,                                       
                                            ###                                      
                                            ####                                     
                                            #####                                    
                                            ######                                   
                                           ########,                                 
                                     ,,################,,,,,                         
                               ,,#################################,,                 
                          ,,##########################################,,             
                       ,#########################################, ''#####,          
                    ,#############################################,,   '####,        
                  ,##################################################,,,,####,       
                ,###########''''           ''''###############################       
              ,#####''   ,,,,##########,,,,          '''####'''          '####       
            ,##' ,,,,###########################,,,                        '##       
           ' ,,###''''                  '''############,,,                           
         ,,##''                                '''############,,,,        ,,,,,,###''
      ,#''                                            '''#######################'''  
     '                                                          ''''####''''         
             ,#######,   #######,   ,#######,      ##                                
            ,#'     '#,  ##    ##  ,#'     '#,    #''#        ######   ,####,        
            ##       ##  ##   ,#'  ##            #'  '#       #        #'  '#        
            ##       ##  #######   ##           ,######,      #####,   #    #        
            '#,     ,#'  ##    ##  '#,     ,#' ,#      #,         ##   #,  ,#        
             '#######'   ##     ##  '#######'  #'      '#     #####' # '####'        



                  #######################################################
                  #                        -***-                        #
                  #          Department of theory and spectroscopy      #
                  #    Directorship and core code : Frank Neese         #
                  #        Max Planck Institute fuer Kohlenforschung    #
                  #                Kaiser Wilhelm Platz 1               #
                  #                 D-45470 Muelheim/Ruhr               #
                  #                      Germany                        #
                  #                                                     #
                  #                  All rights reserved                #
                  #                        -***-                        #
                  #######################################################



                         Program Version 5.0.4 -  RELEASE  -

 With contributions from (in alphabetic order):
   Daniel Aravena         : Magnetic Suceptibility
   Michael Atanasov       : Ab Initio Ligand Field Theory (pilot matlab implementation)
   Alexander A. Auer      : GIAO ZORA, VPT2 properties, NMR spectrum
   Ute Becker             : Parallelization
   Giovanni Bistoni       : ED, misc. LED, open-shell LED, HFLD
   Martin Brehm           : Molecular dynamics
   Dmytro Bykov           : SCF Hessian
   Vijay G. Chilkuri      : MRCI spin determinant printing, contributions to CSF-ICE
   Dipayan Datta          : RHF DLPNO-CCSD density
   Achintya Kumar Dutta   : EOM-CC, STEOM-CC
   Dmitry Ganyushin       : Spin-Orbit,Spin-Spin,Magnetic field MRCI
   Miquel Garcia          : C-PCM and meta-GGA Hessian, CC/C-PCM, Gaussian charge scheme
   Yang Guo               : DLPNO-NEVPT2, F12-NEVPT2, CIM, IAO-localization
   Andreas Hansen         : Spin unrestricted coupled pair/coupled cluster methods
   Benjamin Helmich-Paris : MC-RPA, TRAH-SCF, COSX integrals
   Lee Huntington         : MR-EOM, pCC
   Robert Izsak           : Overlap fitted RIJCOSX, COSX-SCS-MP3, EOM
   Marcus Kettner         : VPT2
   Christian Kollmar      : KDIIS, OOCD, Brueckner-CCSD(T), CCSD density, CASPT2, CASPT2-K
   Simone Kossmann        : Meta GGA functionals, TD-DFT gradient, OOMP2, MP2 Hessian
   Martin Krupicka        : Initial AUTO-CI
   Lucas Lang             : DCDCAS
   Marvin Lechner         : AUTO-CI (C++ implementation), FIC-MRCC
   Dagmar Lenk            : GEPOL surface, SMD
   Dimitrios Liakos       : Extrapolation schemes; Compound Job, initial MDCI parallelization
   Dimitrios Manganas     : Further ROCIS development; embedding schemes
   Dimitrios Pantazis     : SARC Basis sets
   Anastasios Papadopoulos: AUTO-CI, single reference methods and gradients
   Taras Petrenko         : DFT Hessian,TD-DFT gradient, ASA, ECA, R-Raman, ABS, FL, XAS/XES, NRVS
   Peter Pinski           : DLPNO-MP2, DLPNO-MP2 Gradient
   Christoph Reimann      : Effective Core Potentials
   Marius Retegan         : Local ZFS, SOC
   Christoph Riplinger    : Optimizer, TS searches, QM/MM, DLPNO-CCSD(T), (RO)-DLPNO pert. Triples
   Tobias Risthaus        : Range-separated hybrids, TD-DFT gradient, RPA, STAB
   Michael Roemelt        : Original ROCIS implementation
   Masaaki Saitow         : Open-shell DLPNO-CCSD energy and density
   Barbara Sandhoefer     : DKH picture change effects
   Avijit Sen             : IP-ROCIS
   Kantharuban Sivalingam : CASSCF convergence, NEVPT2, FIC-MRCI
   Bernardo de Souza      : ESD, SOC TD-DFT
   Georgi Stoychev        : AutoAux, RI-MP2 NMR, DLPNO-MP2 response
   Willem Van den Heuvel  : Paramagnetic NMR
   Boris Wezisla          : Elementary symmetry handling
   Frank Wennmohs         : Technical directorship


 We gratefully acknowledge several colleagues who have allowed us to
 interface, adapt or use parts of their codes:
   Stefan Grimme, W. Hujo, H. Kruse, P. Pracht,  : VdW corrections, initial TS optimization,
                  C. Bannwarth, S. Ehlert          DFT functionals, gCP, sTDA/sTD-DF
   Ed Valeev, F. Pavosevic, A. Kumar             : LibInt (2-el integral package), F12 methods
   Garnet Chan, S. Sharma, J. Yang, R. Olivares  : DMRG
   Ulf Ekstrom                                   : XCFun DFT Library
   Mihaly Kallay                                 : mrcc  (arbitrary order and MRCC methods)
   Jiri Pittner, Ondrej Demel                    : Mk-CCSD
   Frank Weinhold                                : gennbo (NPA and NBO analysis)
   Christopher J. Cramer and Donald G. Truhlar   : smd solvation model
   Lars Goerigk                                  : TD-DFT with DH, B97 family of functionals
   V. Asgeirsson, H. Jonsson                     : NEB implementation
   FAccTs GmbH                                   : IRC, NEB, NEB-TS, DLPNO-Multilevel, CI-OPT
                                                   MM, QMMM, 2- and 3-layer-ONIOM, Crystal-QMMM,
                                                   LR-CPCM, SF, NACMEs, symmetry and pop. for TD-DFT,
                                                   nearIR, NL-DFT gradient (VV10), updates on ESD,
                                                   ML-optimized integration grids
   S Lehtola, MJT Oliveira, MAL Marques          : LibXC Library
   Liviu Ungur et al                             : ANISO software


 Your calculation uses the libint2 library for the computation of 2-el integrals
 For citations please refer to: http://libint.valeyev.net

 Your ORCA version has been built with support for libXC version: 5.1.0
 For citations please refer to: https://tddft.org/programs/libxc/

 This ORCA versions uses:
   CBLAS   interface :  Fast vector & matrix operations
   LAPACKE interface :  Fast linear algebra routines
   Shared memory     :  Shared parallel matrices


================================================================================

cite the ECPs for Hf [Def2-ECP] as follows:
Ce-Yb(ecp-28): M. Dolg, H. Stoll, H.Preuss, J. Chem. Phys., 1989, 90, 1730-1734.
Y-Cd(ecp-28), Hf-Hg(ecp-46): D. Andrae,U. Haeussermann, M. Dolg, H. Stoll, H. Preuss, Theor. Chim. Acta, 1990, 77, 123-141.
In-Sb(ecp-28), Tl-Bi(ecp-46): B. Metz, H. Stoll, M. Dolg, J. Chem. Phys., 2000, 113, 2563-2569.
Te-Xe(ecp-28), Po-Rn(ecp-46): K. A. Peterson, D. Figgen, E. Goll, H. Stoll, M. Dolg, J. Chem. Phys., 2003, 119, 11113-11123.
Rb(ecp-28), Cs(ecp-46): T. Leininger, A. Nicklass, W. Kuechle, H. Stoll, M. Dolg, A. Bergner, Chem. Phys. Lett., 1996, 255, 274-280.
Sr(ecp-28), Ba(ecp-46): M. Kaupp, P. V. Schleyer, H. Stoll and H. Preuss, J. Chem. Phys., 1991, 94, 1360-1366.
La(ecp-46): M. Dolg, H. Stoll, A. Savin, H. Preuss, Theor. Chim. Acta, 1989, 75, 173-194.
Lu(ecp-28): X. Cao, M. Dolg, J. Chem. Phys., 2001, 115, 7348-7355.

ECP parameters for Hf [Def2-ECP] have been obtained from:
TURBOMOLE (7.0.2)

----- Orbital basis set information -----
Your calculation utilizes the basis: def2-SVPD
   F. Weigend and R. Ahlrichs, Phys. Chem. Chem. Phys. 7, 3297 (2005).
   D. Rappoport and F. Furche, J. Chem. Phys. 133 134105 (2010).

----- AuxJ basis set information -----
Your calculation utilizes the auxiliary basis: def2/J
   F. Weigend, Phys. Chem. Chem. Phys. 8, 1057 (2006).

================================================================================
                                        WARNINGS
                       Please study these warnings very carefully!
================================================================================


WARNING: your system is open-shell and RHF/RKS was chosen
  ===> : WILL SWITCH to UHF/UKS


WARNING: Geometry Optimization
  ===> : Switching off AutoStart
         For restart on a previous wavefunction, please use MOREAD

INFO   : the flag for use of the SHARK integral package has been found!

================================================================================
                                       INPUT FILE
================================================================================
NAME = HfCO6+.inp
|  1> !B3LYP def2-SVPD OPT FREQ TightSCF PAL8
|  2> 
|  3> %scf
|  4>   MaxIter 300
|  5> end
|  6> 
|  7> * xyz 1 4 
|  8> Hf        -0.43733        0.82114       -0.00327
|  9> C          1.85069        0.75179       -0.21043
| 10> C         -0.36713        3.11851        0.00002
| 11> C         -2.72538        0.89099        0.20388
| 12> C         -0.50743       -1.47623       -0.00656
| 13> O         -0.33267        4.24599        0.00163
| 14> O          2.97368        0.71783       -0.31146
| 15> O         -0.54180       -2.60370       -0.00817
| 16> O         -3.84828        0.92536        0.30489
| 17> C         -0.64818        0.83067       -2.29202
| 18> C         -0.22660        0.81111        2.28546
| 19> O         -0.75232        0.83529       -3.41517
| 20> O         -0.12255        0.80608        3.40866
| 21> **                         ****END OF INPUT****
================================================================================

                       *****************************
                       * Geometry Optimization Run *
                       *****************************

Geometry optimization settings:
Update method            Update   .... BFGS
Choice of coordinates    CoordSys .... Z-matrix Internals
Initial Hessian          InHess   .... Almoef's Model

Convergence Tolerances:
Energy Change            TolE     ....  5.0000e-06 Eh
Max. Gradient            TolMAXG  ....  3.0000e-04 Eh/bohr
RMS Gradient             TolRMSG  ....  1.0000e-04 Eh/bohr
Max. Displacement        TolMAXD  ....  4.0000e-03 bohr
RMS Displacement         TolRMSD  ....  2.0000e-03 bohr
Strict Convergence                ....  False
------------------------------------------------------------------------------
                        ORCA OPTIMIZATION COORDINATE SETUP
------------------------------------------------------------------------------

The optimization will be done in new redundant internal coordinates
Making redundant internal coordinates   ...  (new redundants) done
Evaluating the initial hessian          ...  (Almloef) done
Evaluating the coordinates              ...  done
Calculating the B-matrix                .... done
Calculating the G-matrix                .... done
Diagonalizing the G-matrix              .... done
The first mode is                       ....    3
The number of degrees of freedom        ....   33

    -----------------------------------------------------------------
                    Redundant Internal Coordinates


    -----------------------------------------------------------------
         Definition                    Initial Value    Approx d2E/dq
    -----------------------------------------------------------------
      1. B(C   1,Hf  0)                  2.2984         0.051684   
      2. B(C   2,Hf  0)                  2.2984         0.051680   
      3. B(C   3,Hf  0)                  2.2985         0.051675   
      4. B(C   4,Hf  0)                  2.2984         0.051681   
      5. B(O   5,C   2)                  1.1280         1.465101   
      6. B(O   6,C   1)                  1.1280         1.464944   
      7. B(O   7,C   4)                  1.1280         1.465170   
      8. B(O   8,C   3)                  1.1280         1.465369   
      9. B(C   9,Hf  0)                  2.2985         0.051677   
     10. B(C  10,Hf  0)                  2.2984         0.051682   
     11. B(O  11,C   9)                  1.1280         1.465265   
     12. B(O  12,C  10)                  1.1280         1.465032   
     13. A(C   3,Hf  0,C   9)           89.9025         0.214951   
     14. A(C   2,Hf  0,C   9)           90.0047         0.214953   
     15. A(C   1,Hf  0,C  10)           89.9055         0.214958   
     16. A(C   4,Hf  0,C  10)           89.9920         0.214957   
     17. A(C   2,Hf  0,C  10)           90.0078         0.214956   
     18. A(C   4,Hf  0,C   9)           89.9955         0.214953   
     19. A(C   3,Hf  0,C  10)           90.0949         0.214954   
     20. A(C   3,Hf  0,C   4)           90.0082         0.214953   
     21. A(C   1,Hf  0,C   2)           89.9933         0.214957   
     22. A(C   2,Hf  0,C   3)           89.9942         0.214952   
     23. A(C   1,Hf  0,C   4)           90.0042         0.214957   
     24. A(C   1,Hf  0,C   9)           90.0971         0.214955   
     25. L(Hf  0,C   1,O   6,C  10, 1) 179.9673         0.340188   
     26. L(Hf  0,C   1,O   6,C  10, 2) 180.0057         0.340188   
     27. L(Hf  0,C   2,O   5,C   1, 2) 179.9997         0.340190   
     28. L(Hf  0,C   2,O   5,C   1, 1) 179.9996         0.340190   
     29. L(Hf  0,C   3,O   8,C   9, 2) 180.0064         0.340195   
     30. L(Hf  0,C   3,O   8,C   9, 1) 179.9670         0.340195   
     31. L(Hf  0,C   4,O   7,C  10, 2) 180.0023         0.340193   
     32. L(Hf  0,C   4,O   7,C  10, 1) 179.9996         0.340193   
     33. L(Hf  0,C   9,O  11,C   3, 2) 180.0055         0.340193   
     34. L(Hf  0,C   9,O  11,C   3, 1) 179.9662         0.340193   
     35. L(Hf  0,C  10,O  12,C   1, 2) 180.0063         0.340190   
     36. L(Hf  0,C  10,O  12,C   1, 1) 179.9678         0.340190   
    -----------------------------------------------------------------

Number of atoms                         .... 13
Number of degrees of freedom            .... 36

         *************************************************************
         *                GEOMETRY OPTIMIZATION CYCLE   1            *
         *************************************************************
---------------------------------
CARTESIAN COORDINATES (ANGSTROEM)
---------------------------------
  Hf    -0.437330    0.821140   -0.003270
  C      1.850690    0.751790   -0.210430
  C     -0.367130    3.118510    0.000020
  C     -2.725380    0.890990    0.203880
  C     -0.507430   -1.476230   -0.006560
  O     -0.332670    4.245990    0.001630
  O      2.973680    0.717830   -0.311460
  O     -0.541800   -2.603700   -0.008170
  O     -3.848280    0.925360    0.304890
  C     -0.648180    0.830670   -2.292020
  C     -0.226600    0.811110    2.285460
  O     -0.752320    0.835290   -3.415170
  O     -0.122550    0.806080    3.408660

----------------------------
CARTESIAN COORDINATES (A.U.)
----------------------------
  NO LB      ZA    FRAG     MASS         X           Y           Z
   0 Hf   12.0000*   0   178.490   -0.826434    1.551730   -0.006179
   1 C     6.0000    0    12.011    3.497297    1.420677   -0.397655
   2 C     6.0000    0    12.011   -0.693775    5.893130    0.000038
   3 C     6.0000    0    12.011   -5.150222    1.683727    0.385277
   4 C     6.0000    0    12.011   -0.958904   -2.789670   -0.012397
   5 O     8.0000    0    15.999   -0.628655    8.023758    0.003080
   6 O     8.0000    0    15.999    5.619441    1.356502   -0.588574
   7 O     8.0000    0    15.999   -1.023854   -4.920280   -0.015439
   8 O     8.0000    0    15.999   -7.272195    1.748677    0.576159
   9 C     6.0000    0    12.011   -1.224883    1.569739   -4.331290
  10 C     6.0000    0    12.011   -0.428212    1.532776    4.318893
  11 O     8.0000    0    15.999   -1.421679    1.578469   -6.453736
  12 O     8.0000    0    15.999   -0.231586    1.523270    6.441434
* core charge reduced due to ECP

--------------------------------
INTERNAL COORDINATES (ANGSTROEM)
--------------------------------
 Hf     0   0   0     0.000000000000     0.00000000     0.00000000
 C      1   0   0     2.298425593423     0.00000000     0.00000000
 C      1   2   0     2.298444643884    89.99333164     0.00000000
 C      1   2   3     2.298469696885   179.98755957     1.69360706
 C      1   2   3     2.298441591818    90.00418684   180.00022447
 O      3   1   2     1.128007639203   179.99953259    25.06024110
 O      2   1   3     1.128036738143   179.96705257    83.02433160
 O      5   1   2     1.127994897994   179.99832515    13.22061986
 O      4   1   2     1.127957768270   179.96666714    80.51700504
 C      1   2   3     2.298461464959    90.09709529    90.00473603
 C      1   2   3     2.298432671779    89.90546033   269.99218602
 O     10   1   2     1.127977130309   179.96597053   173.40112571
 O     11   1   2     1.128020364798   179.96748502   352.06131053

---------------------------
INTERNAL COORDINATES (A.U.)
---------------------------
 Hf     0   0   0     0.000000000000     0.00000000     0.00000000
 C      1   0   0     4.343394910764     0.00000000     0.00000000
 C      1   2   0     4.343430910919    89.99333164     0.00000000
 C      1   2   3     4.343478254230   179.98755957     1.69360706
 C      1   2   3     4.343425143351    90.00418684   180.00022447
 O      3   1   2     2.131625515064   179.99953259    25.06024110
 O      2   1   3     2.131680504092   179.96705257    83.02433160
 O      5   1   2     2.131601437669   179.99832515    13.22061986
 O      4   1   2     2.131531272659   179.96666714    80.51700504
 C      1   2   3     4.343462698143    90.09709529    90.00473603
 C      1   2   3     4.343408286919    89.90546033   269.99218602
 O     10   1   2     2.131567861610   179.96597053   173.40112571
 O     11   1   2     2.131649562955   179.96748502   352.06131053

---------------------
BASIS SET INFORMATION
---------------------
There are 3 groups of distinct atoms

 Group   1 Type Hf  : 7s7p5d1f contracted to 6s4p2d1f pattern {211111/4111/41/1}
 Group   2 Type C   : 8s4p2d contracted to 4s2p2d pattern {5111/31/11}
 Group   3 Type O   : 8s5p2d contracted to 4s3p2d pattern {5111/311/11}

Atom   0Hf   basis set group =>   1
Atom   1C    basis set group =>   2
Atom   2C    basis set group =>   2
Atom   3C    basis set group =>   2
Atom   4C    basis set group =>   2
Atom   5O    basis set group =>   3
Atom   6O    basis set group =>   3
Atom   7O    basis set group =>   3
Atom   8O    basis set group =>   3
Atom   9C    basis set group =>   2
Atom  10C    basis set group =>   2
Atom  11O    basis set group =>   3
Atom  12O    basis set group =>   3
---------------------------------
AUXILIARY/J BASIS SET INFORMATION
---------------------------------
There are 3 groups of distinct atoms

 Group   1 Type Hf  : 11s5p5d3f3g contracted to 8s5p5d2f3g pattern {41111111/11111/11111/21/111}
 Group   2 Type C   : 12s5p4d2f1g contracted to 6s4p3d1f1g pattern {711111/2111/211/2/1}
 Group   3 Type O   : 12s5p4d2f1g contracted to 6s4p3d1f1g pattern {711111/2111/211/2/1}

Atom   0Hf   basis set group =>   1
Atom   1C    basis set group =>   2
Atom   2C    basis set group =>   2
Atom   3C    basis set group =>   2
Atom   4C    basis set group =>   2
Atom   5O    basis set group =>   3
Atom   6O    basis set group =>   3
Atom   7O    basis set group =>   3
Atom   8O    basis set group =>   3
Atom   9C    basis set group =>   2
Atom  10C    basis set group =>   2
Atom  11O    basis set group =>   3
Atom  12O    basis set group =>   3
-------------------------
ECP PARAMETER INFORMATION
-------------------------

 Group 1, Type Hf ECP Def2-ECP (replacing 60 core electrons, lmax=3)

Atom   0Hf   ECP group =>   1



           ************************************************************
           *        Program running with 8 parallel MPI-processes     *
           *              working on a common directory               *
           ************************************************************
------------------------------------------------------------------------------
                           ORCA GTO INTEGRAL CALCULATION
                           -- RI-GTO INTEGRALS CHOSEN --
------------------------------------------------------------------------------
------------------------------------------------------------------------------
                   ___                                                        
                  /   \      - P O W E R E D   B Y -                         
                 /     \                                                     
                 |  |  |   _    _      __       _____    __    __             
                 |  |  |  | |  | |    /  \     |  _  \  |  |  /  |          
                  \  \/   | |  | |   /    \    | | | |  |  | /  /          
                 / \  \   | |__| |  /  /\  \   | |_| |  |  |/  /          
                |  |  |   |  __  | /  /__\  \  |    /   |      \           
                |  |  |   | |  | | |   __   |  |    \   |  |\   \          
                \     /   | |  | | |  |  |  |  | |\  \  |  | \   \       
                 \___/    |_|  |_| |__|  |__|  |_| \__\ |__|  \__/        
                                                                              
                      - O R C A' S   B I G   F R I E N D -                    
                                      &                                       
                       - I N T E G R A L  F E E D E R -                       
                                                                              
 v1 FN, 2020, v2 2021                                                         
------------------------------------------------------------------------------


Reading SHARK input file HfCO6+.SHARKINP.tmp ... ok
----------------------
SHARK INTEGRAL PACKAGE
----------------------

Number of atoms                             ...     13
Number of basis functions                   ...    293
Number of shells                            ...    115
Maximum angular momentum                    ...      3
Integral batch strategy                     ... SHARK/LIBINT Hybrid
RI-J (if used) integral strategy            ... SPLIT-RIJ (Revised 2003 algorithm where possible)
Printlevel                                  ...      1
Contraction scheme used                     ... SEGMENTED contraction
Coulomb Range Separation                    ... NOT USED
Exchange Range Separation                   ... NOT USED
Finite Nucleus Model                        ... NOT USED
Auxiliary Coulomb fitting basis             ... AVAILABLE
   # of basis functions in Aux-J            ...    677
   # of shells in Aux-J                     ...    203
   Maximum angular momentum in Aux-J        ...      4
Auxiliary J/K fitting basis                 ... NOT available
Auxiliary Correlation fitting basis         ... NOT available
Auxiliary 'external' fitting basis          ... NOT available
Integral threshold                          ...     2.500000e-11
Primitive cut-off                           ...     2.500000e-12
Primitive pair pre-selection threshold      ...     2.500000e-12

Calculating pre-screening integrals         ... done (  0.0 sec) Dimension = 115
Organizing shell pair data                  ... done (  0.1 sec)
Shell pair information
Total number of shell pairs                 ...      6670
Shell pairs after pre-screening             ...      6025
Total number of primitive shell pairs       ...     19084
Primitive shell pairs kept                  ...     13039
          la=0 lb=0:   1272 shell pairs
          la=1 lb=0:   1662 shell pairs
          la=1 lb=1:    568 shell pairs
          la=2 lb=0:   1242 shell pairs
          la=2 lb=1:    836 shell pairs
          la=2 lb=2:    330 shell pairs
          la=3 lb=0:     54 shell pairs
          la=3 lb=1:     34 shell pairs
          la=3 lb=2:     26 shell pairs
          la=3 lb=3:      1 shell pairs

Calculating one electron integrals          ... done (  0.0 sec)
Calculating ECP integrals                   ... done (  0.7 sec)
Calculating RI/J V-Matrix + Cholesky decomp.... done (  0.1 sec)
Calculating Nuclear repulsion               ... done (  0.0 sec) ENN=    679.356281637222 Eh

SHARK setup successfully completed in   1.0 seconds

Maximum memory used throughout the entire GTOINT-calculation: 17.9 MB


           ************************************************************
           *        Program running with 8 parallel MPI-processes     *
           *              working on a common directory               *
           ************************************************************
-------------------------------------------------------------------------------
                                 ORCA SCF
-------------------------------------------------------------------------------

------------
SCF SETTINGS
------------
Hamiltonian:
 Density Functional     Method          .... DFT(GTOs)
 Exchange Functional    Exchange        .... B88
   X-Alpha parameter    XAlpha          ....  0.666667
   Becke's b parameter  XBeta           ....  0.004200
 Correlation Functional Correlation     .... LYP
 LDA part of GGA corr.  LDAOpt          .... VWN-5
 Gradients option       PostSCFGGA      .... off
 Hybrid DFT is turned on
   Fraction HF Exchange ScalHFX         ....  0.200000
   Scaling of DF-GGA-X  ScalDFX         ....  0.720000
   Scaling of DF-GGA-C  ScalDFC         ....  0.810000
   Scaling of DF-LDA-C  ScalLDAC        ....  1.000000
   Perturbative correction              ....  0.000000
   Density functional embedding theory  .... OFF
   NL short-range parameter             ....  4.800000
 RI-approximation to the Coulomb term is turned on
   Number of AuxJ basis functions       .... 677
   RIJ-COSX (HFX calculated with COS-X)).... on


General Settings:
 Integral files         IntName         .... HfCO6+
 Hartree-Fock type      HFTyp           .... UHF
 Total Charge           Charge          ....    1
 Multiplicity           Mult            ....    4
 Number of Electrons    NEL             ....   95
 Basis Dimension        Dim             ....  293
 Nuclear Repulsion      ENuc            ....    679.3562816372 Eh

Convergence Acceleration:
 DIIS                   CNVDIIS         .... on
   Start iteration      DIISMaxIt       ....    12
   Startup error        DIISStart       ....  0.200000
   # of expansion vecs  DIISMaxEq       ....     5
   Bias factor          DIISBfac        ....   1.050
   Max. coefficient     DIISMaxC        ....  10.000
 Trust-Rad. Augm. Hess. CNVTRAH         .... auto
   Auto Start mean grad. ratio tolernc. ....  1.125000
   Auto Start start iteration           ....    20
   Auto Start num. interpolation iter.  ....    10
   Max. Number of Micro iterations      ....    16
   Max. Number of Macro iterations      .... Maxiter - #DIIS iter
   Number of Davidson start vectors     ....     2
   Converg. threshold I  (grad. norm)   ....   1.000e-05
   Converg. threshold II (energy diff.) ....   1.000e-08
   Grad. Scal. Fac. for Micro threshold ....   0.100
   Minimum threshold for Micro iter.    ....   0.010
   NR start threshold (gradient norm)   ....   0.001
   Initial trust radius                 ....   0.400
   Minimum AH scaling param. (alpha)    ....   1.000
   Maximum AH scaling param. (alpha)    .... 1000.000
   Orbital update algorithm             .... Taylor
   White noise on init. David. guess    .... on
   Maximum white noise                  ....   0.010
   Quad. conv. algorithm                .... NR
 SOSCF                  CNVSOSCF        .... off
 Level Shifting         CNVShift        .... on
   Level shift para.    LevelShift      ....    0.2500
   Turn off err/grad.   ShiftErr        ....    0.0010
 Zerner damping         CNVZerner       .... off
 Static damping         CNVDamp         .... on
   Fraction old density DampFac         ....    0.7000
   Max. Damping (<1)    DampMax         ....    0.9800
   Min. Damping (>=0)   DampMin         ....    0.0000
   Turn off err/grad.   DampErr         ....    0.1000
 Fernandez-Rico         CNVRico         .... off

SCF Procedure:
 Maximum # iterations   MaxIter         ....   300
 SCF integral mode      SCFMode         .... Direct
   Integral package                     .... SHARK and LIBINT hybrid scheme
 Reset frequency        DirectResetFreq ....    20
 Integral Threshold     Thresh          ....  2.500e-11 Eh
 Primitive CutOff       TCut            ....  2.500e-12 Eh

Convergence Tolerance:
 Convergence Check Mode ConvCheckMode   .... Total+1el-Energy
 Convergence forced     ConvForced      .... 0
 Energy Change          TolE            ....  1.000e-08 Eh
 1-El. energy change                    ....  1.000e-05 Eh
 DIIS Error             TolErr          ....  5.000e-07


Diagonalization of the overlap matrix:
Smallest eigenvalue                        ... 4.230e-05
Time for diagonalization                   ...    0.017 sec
Threshold for overlap eigenvalues          ... 1.000e-08
Number of eigenvalues below threshold      ... 0
Time for construction of square roots      ...    0.032 sec
Total time needed                          ...    0.050 sec

Time for model grid setup =    0.135 sec

------------------------------
INITIAL GUESS: MODEL POTENTIAL
------------------------------
Loading Hartree-Fock densities                     ... done
  calling C:\orca_5_0_4\orca HfCO6+_atom72.inp > HfCO6+_atom72.out in order to generate an atomic fitting density for atom 0 (Hf with ECP) on-the-fly... 
    atom 0 (Hf), assumed electronic state with S=3: 1s2 2s2 2p6 3s2 3p6 4s2 3d10 4p6 5s2 4d10 5p6 6s2 4f14 5d2           ... done
Calculating cut-offs                               ... done
Initializing the effective Hamiltonian             ... done
Setting up the integral package (SHARK)            ... done
Starting the Coulomb interaction                   ... done (   0.1 sec)
Reading the grid                                   ... done
Mapping shells                                     ... done
Starting the XC term evaluation                    ... done (   0.1 sec)
  promolecular density results
     # of electrons  =    156.003855421
     EX              =   -390.362811814
     EC              =     -6.850133312
     EX+EC           =   -397.212945126
Transforming the Hamiltonian                       ... done (   0.0 sec)
Diagonalizing the Hamiltonian                      ... done (   0.0 sec)
Back transforming the eigenvectors                 ... done (   0.0 sec)
Now organizing SCF variables                       ... done
                      ------------------
                      INITIAL GUESS DONE (   2.3 sec)
                      ------------------
-------------------
DFT GRID GENERATION
-------------------

General Integration Accuracy     IntAcc      ... 4.388
Radial Grid Type                 RadialGrid  ... OptM3 with GC (2021)
Angular Grid (max. ang.)         AngularGrid ... 4 (Lebedev-302)
Angular grid pruning method      GridPruning ... 4 (adaptive)
Weight generation scheme         WeightScheme... Becke
Basis function cutoff            BFCut       ... 1.0000e-11
Integration weight cutoff        WCut        ... 1.0000e-14
Angular grids for H and He will be reduced by one unit
Partially contracted basis set               ... off
Rotationally invariant grid construction     ... off

Total number of grid points                  ...    86112
Total number of batches                      ...     1353
Average number of points per batch           ...       63
Average number of grid points per atom       ...     6624
Time for grid setup =    0.581 sec

--------------------
COSX GRID GENERATION
--------------------

GRIDX 1
-------
General Integration Accuracy     IntAcc      ... 3.816
Radial Grid Type                 RadialGrid  ... OptM3 with GC (2021)
Angular Grid (max. ang.)         AngularGrid ... 1 (Lebedev-50)
Angular grid pruning method      GridPruning ... 4 (adaptive)
Weight generation scheme         WeightScheme... Becke
Basis function cutoff            BFCut       ... 1.0000e-11
Integration weight cutoff        WCut        ... 1.0000e-14
Angular grids for H and He will be reduced by one unit
Partially contracted basis set               ... on
Rotationally invariant grid construction     ... off

Total number of grid points                  ...    10572
Total number of batches                      ...      172
Average number of points per batch           ...       61
Average number of grid points per atom       ...      813
UseSFitting                                  ... on

GRIDX 2
-------
General Integration Accuracy     IntAcc      ... 4.020
Radial Grid Type                 RadialGrid  ... OptM3 with GC (2021)
Angular Grid (max. ang.)         AngularGrid ... 2 (Lebedev-110)
Angular grid pruning method      GridPruning ... 4 (adaptive)
Weight generation scheme         WeightScheme... Becke
Basis function cutoff            BFCut       ... 1.0000e-11
Integration weight cutoff        WCut        ... 1.0000e-14
Angular grids for H and He will be reduced by one unit
Partially contracted basis set               ... on
Rotationally invariant grid construction     ... off

Total number of grid points                  ...    27989
Total number of batches                      ...      444
Average number of points per batch           ...       63
Average number of grid points per atom       ...     2153
UseSFitting                                  ... on

GRIDX 3
-------
General Integration Accuracy     IntAcc      ... 4.338
Radial Grid Type                 RadialGrid  ... OptM3 with GC (2021)
Angular Grid (max. ang.)         AngularGrid ... 3 (Lebedev-194)
Angular grid pruning method      GridPruning ... 4 (adaptive)
Weight generation scheme         WeightScheme... Becke
Basis function cutoff            BFCut       ... 1.0000e-11
Integration weight cutoff        WCut        ... 1.0000e-14
Angular grids for H and He will be reduced by one unit
Partially contracted basis set               ... on
Rotationally invariant grid construction     ... off

Total number of grid points                  ...    59748
Total number of batches                      ...      939
Average number of points per batch           ...       63
Average number of grid points per atom       ...     4596
UseSFitting                                  ... on

Time for X-Grid setup             =    0.815 sec

--------------
SCF ITERATIONS
--------------
ITER       Energy         Delta-E        Max-DP      RMS-DP      [F,P]     Damp
               ***  Starting incremental Fock matrix formation  ***
  0   -726.1997753330   0.000000000000 0.37988732  0.00356292  0.1742386 0.7000
  1   -726.5587232167  -0.358947883721 0.26880774  0.00245122  0.1094223 0.7000
                               ***Turning on DIIS***
  2   -726.7043785710  -0.145655354305 0.55692041  0.00509132  0.0708545 0.0000
  3   -726.8401982109  -0.135819639853 0.11364558  0.00166362  0.0605871 0.0000
  4   -726.9239490009  -0.083750790019 0.03859695  0.00041786  0.0241605 0.0000
  5   -726.9336472346  -0.009698233753 0.01736005  0.00010684  0.0090860 0.0000
  6   -726.9350322055  -0.001384970850 0.00847334  0.00007967  0.0034065 0.0000
  7   -726.9352415521  -0.000209346568 0.00446447  0.00004962  0.0014859 0.0000
  8   -726.9353299532  -0.000088401098 0.00454245  0.00004415  0.0004667 0.0000
               *** Restarting incremental Fock matrix formation ***
                                   *** Resetting DIIS ***
  9   -726.9354074920  -0.000077538825 0.00160791  0.00003130  0.0001602 0.0000
 10   -726.9354067703   0.000000721664 0.00053447  0.00000653  0.0002228 0.0000
 11   -726.9354083048  -0.000001534434 0.00006607  0.00000160  0.0000974 0.0000
 12   -726.9354084493  -0.000000144520 0.00017330  0.00000190  0.0000361 0.0000
 13   -726.9354084795  -0.000000030221 0.00004756  0.00000072  0.0000151 0.0000
 14   -726.9354084906  -0.000000011093 0.00005880  0.00000086  0.0000055 0.0000
 15   -726.9354084857   0.000000004850 0.00001549  0.00000025  0.0000068 0.0000
 16   -726.9354084982  -0.000000012479 0.00002133  0.00000046  0.0000046 0.0000
                            ***DIIS convergence achieved***

               *****************************************************
               *                     SUCCESS                       *
               *           SCF CONVERGED AFTER  17 CYCLES          *
               *****************************************************

Old exchange energy                            =    -16.985994047 Eh
New exchange energy                            =    -16.986017453 Eh
Exchange energy change after final integration =     -0.000023406 Eh
Total energy after final integration           =   -726.935431888 Eh
Final COS-X integration done in                =     4.694 sec

----------------
TOTAL SCF ENERGY
----------------

Total Energy       :         -726.93543189 Eh          -19780.91874 eV

Components:
Nuclear Repulsion  :          679.35628164 Eh           18486.22424 eV
Electronic Energy  :        -1406.29171352 Eh          -38267.14299 eV
One Electron Energy:        -2339.49174121 Eh          -63660.80673 eV
Two Electron Energy:          933.20002768 Eh           25393.66374 eV
Max COSX asymmetry :            0.00000889 Eh               0.00024 eV

Virial components:
Potential Energy   :        -1417.49796591 Eh          -38572.08062 eV
Kinetic Energy     :          690.56253403 Eh           18791.16188 eV
Virial Ratio       :            2.05267140


DFT components:
N(Alpha)           :       49.000090976267 electrons
N(Beta)            :       46.000079285959 electrons
N(Total)           :       95.000170262225 electrons
E(X)               :      -67.918280151121 Eh       
E(C)               :       -3.873527379314 Eh       
E(XC)              :      -71.791807530435 Eh       
DFET-embed. en.    :        0.000000000000 Eh       

---------------
SCF CONVERGENCE
---------------

  Last Energy change         ...    1.6173e-08  Tolerance :   1.0000e-08
  Last MAX-Density change    ...    0.0000e+00  Tolerance :   1.0000e-07
  Last RMS-Density change    ...    0.0000e+00  Tolerance :   5.0000e-09
  Last DIIS Error            ...    8.0241e-07  Tolerance :   5.0000e-07

             **** THE GBW FILE WAS UPDATED (HfCO6+.gbw) ****
             **** DENSITY HfCO6+.scfp WAS UPDATED ****
             **** ENERGY FILE WAS UPDATED (HfCO6+.en.tmp) ****
----------------------
UHF SPIN CONTAMINATION
----------------------

Warning: in a DFT calculation there is little theoretical justification to 
         calculate <S**2> as in Hartree-Fock theory. We will do it anyways
         but you should keep in mind that the values have only limited relevance

Expectation value of <S**2>     :     3.755103
Ideal value S*(S+1) for S=1.5   :     3.750000
Deviation                       :     0.005103

             **** THE GBW FILE WAS UPDATED (HfCO6+.gbw) ****
             **** DENSITY HfCO6+.scfp WAS UPDATED ****
----------------
ORBITAL ENERGIES
----------------
                 SPIN UP ORBITALS
  NO   OCC          E(Eh)            E(eV) 
   0   1.0000     -19.419226      -528.4240 
   1   1.0000     -19.419220      -528.4238 
   2   1.0000     -19.419174      -528.4226 
   3   1.0000     -19.419168      -528.4224 
   4   1.0000     -19.419164      -528.4223 
   5   1.0000     -19.419162      -528.4223 
   6   1.0000     -10.481688      -285.2212 
   7   1.0000     -10.481675      -285.2209 
   8   1.0000     -10.481626      -285.2195 
   9   1.0000     -10.481625      -285.2195 
  10   1.0000     -10.481609      -285.2191 
  11   1.0000     -10.481500      -285.2161 
  12   1.0000      -2.635598       -71.7183 
  13   1.0000      -1.487434       -40.4751 
  14   1.0000      -1.487429       -40.4750 
  15   1.0000      -1.487426       -40.4749 
  16   1.0000      -1.324938       -36.0534 
  17   1.0000      -1.324642       -36.0453 
  18   1.0000      -1.324625       -36.0449 
  19   1.0000      -1.324603       -36.0443 
  20   1.0000      -1.324599       -36.0442 
  21   1.0000      -1.324587       -36.0438 
  22   1.0000      -0.757669       -20.6172 
  23   1.0000      -0.739286       -20.1170 
  24   1.0000      -0.739284       -20.1169 
  25   1.0000      -0.736684       -20.0462 
  26   1.0000      -0.736664       -20.0456 
  27   1.0000      -0.736654       -20.0454 
  28   1.0000      -0.670257       -18.2386 
  29   1.0000      -0.657566       -17.8933 
  30   1.0000      -0.657558       -17.8930 
  31   1.0000      -0.657549       -17.8928 
  32   1.0000      -0.653655       -17.7869 
  33   1.0000      -0.653639       -17.7864 
  34   1.0000      -0.653620       -17.7859 
  35   1.0000      -0.650477       -17.7004 
  36   1.0000      -0.650466       -17.7001 
  37   1.0000      -0.650450       -17.6996 
  38   1.0000      -0.647586       -17.6217 
  39   1.0000      -0.647582       -17.6216 
  40   1.0000      -0.647581       -17.6216 
  41   1.0000      -0.628941       -17.1144 
  42   1.0000      -0.628928       -17.1140 
  43   1.0000      -0.596535       -16.2325 
  44   1.0000      -0.596460       -16.2305 
  45   1.0000      -0.596394       -16.2287 
  46   1.0000      -0.379105       -10.3160 
  47   1.0000      -0.379047       -10.3144 
  48   1.0000      -0.379033       -10.3140 
  49   0.0000      -0.247556        -6.7363 
  50   0.0000      -0.247520        -6.7354 
  51   0.0000      -0.247490        -6.7346 
  52   0.0000      -0.223815        -6.0903 
  53   0.0000      -0.223736        -6.0882 
  54   0.0000      -0.223656        -6.0860 
  55   0.0000      -0.187827        -5.1110 
  56   0.0000      -0.187805        -5.1104 
  57   0.0000      -0.187801        -5.1103 
  58   0.0000      -0.127004        -3.4559 
  59   0.0000      -0.121907        -3.3172 
  60   0.0000      -0.121900        -3.3171 
  61   0.0000      -0.121866        -3.3161 
  62   0.0000      -0.095722        -2.6047 
  63   0.0000      -0.095705        -2.6043 
  64   0.0000      -0.092352        -2.5130 
  65   0.0000      -0.092327        -2.5123 
  66   0.0000      -0.092302        -2.5117 
  67   0.0000      -0.046450        -1.2640 
  68   0.0000      -0.046413        -1.2630 
  69   0.0000      -0.046395        -1.2625 
  70   0.0000      -0.034256        -0.9322 
  71   0.0000      -0.034219        -0.9311 
  72   0.0000      -0.013965        -0.3800 
  73   0.0000      -0.012674        -0.3449 
  74   0.0000      -0.012671        -0.3448 
  75   0.0000      -0.012667        -0.3447 
  76   0.0000      -0.005172        -0.1407 
  77   0.0000      -0.005126        -0.1395 
  78   0.0000      -0.005066        -0.1379 
  79   0.0000      -0.001007        -0.0274 
  80   0.0000       0.015117         0.4114 
  81   0.0000       0.030288         0.8242 
  82   0.0000       0.030321         0.8251 
  83   0.0000       0.040227         1.0946 
  84   0.0000       0.040245         1.0951 
  85   0.0000       0.040247         1.0952 
  86   0.0000       0.053753         1.4627 
  87   0.0000       0.053867         1.4658 
  88   0.0000       0.053977         1.4688 
  89   0.0000       0.079311         2.1582 
  90   0.0000       0.083516         2.2726 
  91   0.0000       0.083518         2.2726 
  92   0.0000       0.083540         2.2732 
  93   0.0000       0.099887         2.7181 
  94   0.0000       0.100015         2.7216 
  95   0.0000       0.100161         2.7255 
  96   0.0000       0.136581         3.7166 
  97   0.0000       0.136588         3.7168 
  98   0.0000       0.137428         3.7396 
  99   0.0000       0.137690         3.7467 
 100   0.0000       0.137769         3.7489 
 101   0.0000       0.137929         3.7532 
 102   0.0000       0.138037         3.7562 
 103   0.0000       0.138251         3.7620 
 104   0.0000       0.183800         5.0014 
 105   0.0000       0.184100         5.0096 
 106   0.0000       0.184345         5.0163 
 107   0.0000       0.188599         5.1320 
 108   0.0000       0.188625         5.1328 
 109   0.0000       0.206755         5.6261 
 110   0.0000       0.210462         5.7270 
 111   0.0000       0.210634         5.7316 
 112   0.0000       0.210819         5.7367 
 113   0.0000       0.230150         6.2627 
 114   0.0000       0.230216         6.2645 
 115   0.0000       0.253629         6.9016 
 116   0.0000       0.304791         8.2938 
 117   0.0000       0.304874         8.2960 
 118   0.0000       0.304919         8.2973 
 119   0.0000       0.313615         8.5339 
 120   0.0000       0.313658         8.5351 
 121   0.0000       0.323416         8.8006 
 122   0.0000       0.323510         8.8031 
 123   0.0000       0.323612         8.8059 
 124   0.0000       0.331732         9.0269 
 125   0.0000       0.331737         9.0270 
 126   0.0000       0.331741         9.0271 
 127   0.0000       0.338333         9.2065 
 128   0.0000       0.338482         9.2106 
 129   0.0000       0.338630         9.2146 
 130   0.0000       0.363706         9.8970 
 131   0.0000       0.363719         9.8973 
 132   0.0000       0.363760         9.8984 
 133   0.0000       0.367300         9.9947 
 134   0.0000       0.368479        10.0268 
 135   0.0000       0.368579        10.0296 
 136   0.0000       0.368714        10.0332 
 137   0.0000       0.386242        10.5102 
 138   0.0000       0.386284        10.5113 
 139   0.0000       0.386295        10.5116 
 140   0.0000       0.410784        11.1780 
 141   0.0000       0.438467        11.9313 
 142   0.0000       0.438615        11.9353 
 143   0.0000       0.438739        11.9387 
 144   0.0000       0.444203        12.0874 
 145   0.0000       0.444309        12.0903 
 146   0.0000       0.444436        12.0937 
 147   0.0000       0.457902        12.4601 
 148   0.0000       0.457940        12.4612 
 149   0.0000       0.468503        12.7486 
 150   0.0000       0.468570        12.7505 
 151   0.0000       0.468680        12.7534 
 152   0.0000       0.469243        12.7687 
 153   0.0000       0.469419        12.7735 
 154   0.0000       0.503075        13.6894 
 155   0.0000       0.503088        13.6897 
 156   0.0000       0.503090        13.6898 
 157   0.0000       0.525909        14.3107 
 158   0.0000       0.526159        14.3175 
 159   0.0000       0.526403        14.3242 
 160   0.0000       0.527286        14.3482 
 161   0.0000       0.559323        15.2199 
 162   0.0000       0.559399        15.2220 
 163   0.0000       0.617101        16.7922 
 164   0.0000       0.617126        16.7929 
 165   0.0000       0.617220        16.7954 
 166   0.0000       0.655040        17.8245 
 167   0.0000       0.668599        18.1935 
 168   0.0000       0.680565        18.5191 
 169   0.0000       0.680617        18.5205 
 170   0.0000       0.680673        18.5221 
 171   0.0000       0.714221        19.4350 
 172   0.0000       0.714398        19.4398 
 173   0.0000       0.737578        20.0705 
 174   0.0000       0.737739        20.0749 
 175   0.0000       0.737755        20.0753 
 176   0.0000       0.739739        20.1293 
 177   0.0000       0.745314        20.2810 
 178   0.0000       0.745376        20.2827 
 179   0.0000       0.745377        20.2827 
 180   0.0000       0.749514        20.3953 
 181   0.0000       0.749741        20.4015 
 182   0.0000       0.750061        20.4102 
 183   0.0000       0.766331        20.8529 
 184   0.0000       0.766415        20.8552 
 185   0.0000       0.805372        21.9153 
 186   0.0000       0.826087        22.4790 
 187   0.0000       0.826266        22.4839 
 188   0.0000       0.826352        22.4862 
 189   0.0000       0.861526        23.4433 
 190   0.0000       0.893300        24.3079 
 191   0.0000       0.893311        24.3082 
 192   0.0000       0.910822        24.7847 
 193   0.0000       0.910905        24.7870 
 194   0.0000       0.910986        24.7892 
 195   0.0000       0.960915        26.1478 
 196   0.0000       0.961159        26.1545 
 197   0.0000       0.961383        26.1606 
 198   0.0000       1.047525        28.5046 
 199   0.0000       1.047571        28.5059 
 200   0.0000       1.047653        28.5081 
 201   0.0000       1.127749        30.6876 
 202   0.0000       1.127821        30.6896 
 203   0.0000       1.341621        36.5074 
 204   0.0000       1.344438        36.5840 
 205   0.0000       1.344640        36.5895 
 206   0.0000       1.344818        36.5944 
 207   0.0000       1.345318        36.6080 
 208   0.0000       1.345444        36.6114 
 209   0.0000       1.345577        36.6150 
 210   0.0000       1.358828        36.9756 
 211   0.0000       1.358830        36.9757 
 212   0.0000       1.358842        36.9760 
 213   0.0000       1.370477        37.2926 
 214   0.0000       1.370503        37.2933 
 215   0.0000       1.393441        37.9175 
 216   0.0000       1.393603        37.9219 
 217   0.0000       1.393789        37.9269 
 218   0.0000       1.413641        38.4671 
 219   0.0000       1.414005        38.4770 
 220   0.0000       1.414460        38.4894 
 221   0.0000       1.571312        42.7576 
 222   0.0000       1.578520        42.9537 
 223   0.0000       1.578586        42.9555 
 224   0.0000       1.578700        42.9586 
 225   0.0000       1.588861        43.2351 
 226   0.0000       1.589083        43.2412 
 227   0.0000       1.589313        43.2474 
 228   0.0000       1.597894        43.4809 
 229   0.0000       1.597905        43.4812 
 230   0.0000       1.607200        43.7341 
 231   0.0000       1.607371        43.7388 
 232   0.0000       1.607538        43.7433 
 233   0.0000       1.663600        45.2689 
 234   0.0000       1.674656        45.5697 
 235   0.0000       1.674701        45.5709 
 236   0.0000       1.691058        46.0160 
 237   0.0000       1.691198        46.0198 
 238   0.0000       1.691211        46.0202 
 239   0.0000       1.738377        47.3036 
 240   0.0000       1.738536        47.3080 
 241   0.0000       1.738755        47.3139 
 242   0.0000       1.747657        47.5562 
 243   0.0000       1.747661        47.5563 
 244   0.0000       1.747705        47.5575 
 245   0.0000       1.790206        48.7140 
 246   0.0000       1.790330        48.7174 
 247   0.0000       1.790518        48.7225 
 248   0.0000       1.831911        49.8488 
 249   0.0000       1.880672        51.1757 
 250   0.0000       1.881153        51.1888 
 251   0.0000       1.881659        51.2025 
 252   0.0000       1.944999        52.9261 
 253   0.0000       1.945016        52.9266 
 254   0.0000       1.995563        54.3020 
 255   0.0000       2.352574        64.0168 
 256   0.0000       2.352579        64.0169 
 257   0.0000       2.486254        67.6544 
 258   0.0000       2.602014        70.8044 
 259   0.0000       2.626800        71.4789 
 260   0.0000       2.626883        71.4811 
 261   0.0000       2.626937        71.4826 
 262   0.0000       2.634711        71.6941 
 263   0.0000       2.634916        71.6997 
 264   0.0000       2.635154        71.7062 
 265   0.0000       2.644314        71.9555 
 266   0.0000       2.644324        71.9557 
 267   0.0000       2.655408        72.2573 
 268   0.0000       2.655422        72.2577 
 269   0.0000       2.695205        73.3403 
 270   0.0000       2.717712        73.9527 
 271   0.0000       2.717720        73.9529 
 272   0.0000       2.717723        73.9530 
 273   0.0000       3.005658        81.7881 
 274   0.0000       3.005661        81.7882 
 275   0.0000       3.005676        81.7886 
 276   0.0000       3.020869        82.2020 
 277   0.0000       3.020933        82.2038 
 278   0.0000       3.020964        82.2046 
 279   0.0000       3.046798        82.9076 
 280   0.0000       3.046802        82.9077 
 281   0.0000       3.046822        82.9083 
 282   0.0000       3.047227        82.9193 
 283   0.0000       3.047246        82.9198 
 284   0.0000       3.047285        82.9208 
 285   0.0000       3.629686        98.7688 
 286   0.0000       3.629688        98.7688 
 287   0.0000       3.629795        98.7717 
 288   0.0000       3.646950        99.2386 
 289   0.0000       3.647001        99.2399 
 290   0.0000       3.647050        99.2413 
 291   0.0000      72.779162      1980.4217 
 292   0.0000     707.705783     19257.6534 

                 SPIN DOWN ORBITALS
  NO   OCC          E(Eh)            E(eV) 
   0   1.0000     -19.415547      -528.3239 
   1   1.0000     -19.415541      -528.3237 
   2   1.0000     -19.415496      -528.3225 
   3   1.0000     -19.415490      -528.3223 
   4   1.0000     -19.415485      -528.3222 
   5   1.0000     -19.415484      -528.3222 
   6   1.0000     -10.481377      -285.2128 
   7   1.0000     -10.481364      -285.2124 
   8   1.0000     -10.481313      -285.2110 
   9   1.0000     -10.481312      -285.2110 
  10   1.0000     -10.481298      -285.2106 
  11   1.0000     -10.481187      -285.2076 
  12   1.0000      -2.613736       -71.1234 
  13   1.0000      -1.456346       -39.6292 
  14   1.0000      -1.456332       -39.6288 
  15   1.0000      -1.456310       -39.6282 
  16   1.0000      -1.319225       -35.8979 
  17   1.0000      -1.318944       -35.8903 
  18   1.0000      -1.318928       -35.8899 
  19   1.0000      -1.318898       -35.8890 
  20   1.0000      -1.318895       -35.8890 
  21   1.0000      -1.318883       -35.8886 
  22   1.0000      -0.746861       -20.3231 
  23   1.0000      -0.732564       -19.9341 
  24   1.0000      -0.732555       -19.9338 
  25   1.0000      -0.730004       -19.8644 
  26   1.0000      -0.729984       -19.8639 
  27   1.0000      -0.729977       -19.8637 
  28   1.0000      -0.659238       -17.9388 
  29   1.0000      -0.646219       -17.5845 
  30   1.0000      -0.646208       -17.5842 
  31   1.0000      -0.646200       -17.5840 
  32   1.0000      -0.643223       -17.5030 
  33   1.0000      -0.643204       -17.5025 
  34   1.0000      -0.643183       -17.5019 
  35   1.0000      -0.640098       -17.4180 
  36   1.0000      -0.640084       -17.4176 
  37   1.0000      -0.640067       -17.4171 
  38   1.0000      -0.637218       -17.3396 
  39   1.0000      -0.637213       -17.3394 
  40   1.0000      -0.637210       -17.3394 
  41   1.0000      -0.620899       -16.8955 
  42   1.0000      -0.620847       -16.8941 
  43   1.0000      -0.587819       -15.9954 
  44   1.0000      -0.587728       -15.9929 
  45   1.0000      -0.587677       -15.9915 
  46   0.0000      -0.307045        -8.3551 
  47   0.0000      -0.306952        -8.3526 
  48   0.0000      -0.306864        -8.3502 
  49   0.0000      -0.228277        -6.2117 
  50   0.0000      -0.228256        -6.2112 
  51   0.0000      -0.228211        -6.2099 
  52   0.0000      -0.206301        -5.6137 
  53   0.0000      -0.206239        -5.6120 
  54   0.0000      -0.206146        -5.6095 
  55   0.0000      -0.175119        -4.7652 
  56   0.0000      -0.175072        -4.7640 
  57   0.0000      -0.175060        -4.7636 
  58   0.0000      -0.125345        -3.4108 
  59   0.0000      -0.091617        -2.4930 
  60   0.0000      -0.091586        -2.4922 
  61   0.0000      -0.091563        -2.4916 
  62   0.0000      -0.086928        -2.3654 
  63   0.0000      -0.086896        -2.3646 
  64   0.0000      -0.086877        -2.3640 
  65   0.0000      -0.086690        -2.3590 
  66   0.0000      -0.086672        -2.3585 
  67   0.0000      -0.045616        -1.2413 
  68   0.0000      -0.045575        -1.2402 
  69   0.0000      -0.045559        -1.2397 
  70   0.0000      -0.029208        -0.7948 
  71   0.0000      -0.029150        -0.7932 
  72   0.0000      -0.012030        -0.3273 
  73   0.0000      -0.012027        -0.3273 
  74   0.0000      -0.012024        -0.3272 
  75   0.0000      -0.004671        -0.1271 
  76   0.0000      -0.004627        -0.1259 
  77   0.0000      -0.004561        -0.1241 
  78   0.0000      -0.003385        -0.0921 
  79   0.0000       0.000152         0.0041 
  80   0.0000       0.031854         0.8668 
  81   0.0000       0.031901         0.8681 
  82   0.0000       0.037831         1.0294 
  83   0.0000       0.040758         1.1091 
  84   0.0000       0.040780         1.1097 
  85   0.0000       0.040781         1.1097 
  86   0.0000       0.054037         1.4704 
  87   0.0000       0.054163         1.4738 
  88   0.0000       0.054272         1.4768 
  89   0.0000       0.083439         2.2705 
  90   0.0000       0.088493         2.4080 
  91   0.0000       0.088520         2.4088 
  92   0.0000       0.088543         2.4094 
  93   0.0000       0.103633         2.8200 
  94   0.0000       0.103716         2.8223 
  95   0.0000       0.103820         2.8251 
  96   0.0000       0.137570         3.7435 
  97   0.0000       0.137571         3.7435 
  98   0.0000       0.140157         3.8139 
  99   0.0000       0.140176         3.8144 
 100   0.0000       0.140183         3.8146 
 101   0.0000       0.147867         4.0237 
 102   0.0000       0.148036         4.0283 
 103   0.0000       0.148388         4.0378 
 104   0.0000       0.184298         5.0150 
 105   0.0000       0.184597         5.0231 
 106   0.0000       0.184829         5.0294 
 107   0.0000       0.188404         5.1267 
 108   0.0000       0.188451         5.1280 
 109   0.0000       0.209956         5.7132 
 110   0.0000       0.220744         6.0067 
 111   0.0000       0.220862         6.0100 
 112   0.0000       0.221137         6.0174 
 113   0.0000       0.233813         6.3624 
 114   0.0000       0.233934         6.3657 
 115   0.0000       0.253091         6.8870 
 116   0.0000       0.307409         8.3650 
 117   0.0000       0.307507         8.3677 
 118   0.0000       0.307536         8.3685 
 119   0.0000       0.314854         8.5676 
 120   0.0000       0.314942         8.5700 
 121   0.0000       0.324431         8.8282 
 122   0.0000       0.324519         8.8306 
 123   0.0000       0.324633         8.8337 
 124   0.0000       0.331846         9.0300 
 125   0.0000       0.331858         9.0303 
 126   0.0000       0.331866         9.0305 
 127   0.0000       0.339410         9.2358 
 128   0.0000       0.339565         9.2400 
 129   0.0000       0.339712         9.2440 
 130   0.0000       0.375426        10.2159 
 131   0.0000       0.376749        10.2519 
 132   0.0000       0.376806        10.2534 
 133   0.0000       0.376894        10.2558 
 134   0.0000       0.383054        10.4234 
 135   0.0000       0.383144        10.4259 
 136   0.0000       0.383408        10.4331 
 137   0.0000       0.388916        10.5830 
 138   0.0000       0.388983        10.5848 
 139   0.0000       0.389002        10.5853 
 140   0.0000       0.411473        11.1967 
 141   0.0000       0.439752        11.9663 
 142   0.0000       0.439912        11.9706 
 143   0.0000       0.440029        11.9738 
 144   0.0000       0.446490        12.1496 
 145   0.0000       0.446596        12.1525 
 146   0.0000       0.446725        12.1560 
 147   0.0000       0.463079        12.6010 
 148   0.0000       0.463177        12.6037 
 149   0.0000       0.470556        12.8045 
 150   0.0000       0.470564        12.8047 
 151   0.0000       0.473869        12.8946 
 152   0.0000       0.473984        12.8978 
 153   0.0000       0.474099        12.9009 
 154   0.0000       0.504593        13.7307 
 155   0.0000       0.504619        13.7314 
 156   0.0000       0.504625        13.7315 
 157   0.0000       0.527820        14.3627 
 158   0.0000       0.528081        14.3698 
 159   0.0000       0.528323        14.3764 
 160   0.0000       0.532586        14.4924 
 161   0.0000       0.562047        15.2941 
 162   0.0000       0.562174        15.2975 
 163   0.0000       0.624611        16.9965 
 164   0.0000       0.624668        16.9981 
 165   0.0000       0.624733        16.9999 
 166   0.0000       0.659560        17.9475 
 167   0.0000       0.687107        18.6971 
 168   0.0000       0.687163        18.6987 
 169   0.0000       0.687257        18.7012 
 170   0.0000       0.715805        19.4780 
 171   0.0000       0.716125        19.4868 
 172   0.0000       0.716406        19.4944 
 173   0.0000       0.740929        20.1617 
 174   0.0000       0.744167        20.2498 
 175   0.0000       0.744226        20.2514 
 176   0.0000       0.744292        20.2532 
 177   0.0000       0.752300        20.4711 
 178   0.0000       0.752329        20.4719 
 179   0.0000       0.752338        20.4722 
 180   0.0000       0.757836        20.6218 
 181   0.0000       0.758138        20.6300 
 182   0.0000       0.758349        20.6357 
 183   0.0000       0.769882        20.9496 
 184   0.0000       0.770023        20.9534 
 185   0.0000       0.816813        22.2266 
 186   0.0000       0.828527        22.5454 
 187   0.0000       0.828696        22.5500 
 188   0.0000       0.828787        22.5525 
 189   0.0000       0.864919        23.5356 
 190   0.0000       0.901382        24.5278 
 191   0.0000       0.901643        24.5350 
 192   0.0000       0.933521        25.4024 
 193   0.0000       0.933551        25.4032 
 194   0.0000       0.933705        25.4074 
 195   0.0000       0.973791        26.4982 
 196   0.0000       0.974063        26.5056 
 197   0.0000       0.974232        26.5102 
 198   0.0000       1.052953        28.6523 
 199   0.0000       1.053021        28.6542 
 200   0.0000       1.053109        28.6566 
 201   0.0000       1.132677        30.8217 
 202   0.0000       1.132852        30.8265 
 203   0.0000       1.343840        36.5677 
 204   0.0000       1.347941        36.6793 
 205   0.0000       1.348147        36.6849 
 206   0.0000       1.348327        36.6898 
 207   0.0000       1.351126        36.7660 
 208   0.0000       1.351253        36.7695 
 209   0.0000       1.351386        36.7731 
 210   0.0000       1.364036        37.1173 
 211   0.0000       1.364040        37.1174 
 212   0.0000       1.364045        37.1175 
 213   0.0000       1.373876        37.3851 
 214   0.0000       1.373932        37.3866 
 215   0.0000       1.400021        38.0965 
 216   0.0000       1.400196        38.1013 
 217   0.0000       1.400364        38.1058 
 218   0.0000       1.421061        38.6690 
 219   0.0000       1.421461        38.6799 
 220   0.0000       1.421873        38.6911 
 221   0.0000       1.576923        42.9103 
 222   0.0000       1.583283        43.0833 
 223   0.0000       1.583349        43.0851 
 224   0.0000       1.583460        43.0881 
 225   0.0000       1.595138        43.4059 
 226   0.0000       1.595358        43.4119 
 227   0.0000       1.595595        43.4183 
 228   0.0000       1.602429        43.6043 
 229   0.0000       1.602434        43.6045 
 230   0.0000       1.611838        43.8603 
 231   0.0000       1.612000        43.8647 
 232   0.0000       1.612173        43.8694 
 233   0.0000       1.667484        45.3746 
 234   0.0000       1.679916        45.7128 
 235   0.0000       1.679980        45.7146 
 236   0.0000       1.695758        46.1439 
 237   0.0000       1.695909        46.1480 
 238   0.0000       1.695991        46.1503 
 239   0.0000       1.743844        47.4524 
 240   0.0000       1.743952        47.4553 
 241   0.0000       1.744230        47.4629 
 242   0.0000       1.751062        47.6488 
 243   0.0000       1.751074        47.6491 
 244   0.0000       1.751088        47.6495 
 245   0.0000       1.797578        48.9146 
 246   0.0000       1.797758        48.9195 
 247   0.0000       1.797910        48.9236 
 248   0.0000       1.835790        49.9544 
 249   0.0000       1.886724        51.3404 
 250   0.0000       1.887195        51.3532 
 251   0.0000       1.887684        51.3665 
 252   0.0000       1.948259        53.0148 
 253   0.0000       1.948275        53.0153 
 254   0.0000       2.013730        54.7964 
 255   0.0000       2.356683        64.1286 
 256   0.0000       2.356704        64.1292 
 257   0.0000       2.494950        67.8910 
 258   0.0000       2.612536        71.0907 
 259   0.0000       2.637218        71.7623 
 260   0.0000       2.637299        71.7645 
 261   0.0000       2.637354        71.7660 
 262   0.0000       2.645100        71.9768 
 263   0.0000       2.645302        71.9823 
 264   0.0000       2.645542        71.9889 
 265   0.0000       2.654661        72.2370 
 266   0.0000       2.654672        72.2373 
 267   0.0000       2.665675        72.5367 
 268   0.0000       2.665691        72.5372 
 269   0.0000       2.705269        73.6141 
 270   0.0000       2.724261        74.1309 
 271   0.0000       2.724269        74.1311 
 272   0.0000       2.724271        74.1312 
 273   0.0000       3.011419        81.9449 
 274   0.0000       3.011423        81.9450 
 275   0.0000       3.011440        81.9454 
 276   0.0000       3.026699        82.3607 
 277   0.0000       3.026767        82.3625 
 278   0.0000       3.026791        82.3632 
 279   0.0000       3.052958        83.0752 
 280   0.0000       3.052960        83.0753 
 281   0.0000       3.052983        83.0759 
 282   0.0000       3.053428        83.0880 
 283   0.0000       3.053437        83.0883 
 284   0.0000       3.053486        83.0896 
 285   0.0000       3.633726        98.8787 
 286   0.0000       3.633737        98.8790 
 287   0.0000       3.633780        98.8802 
 288   0.0000       3.651034        99.3497 
 289   0.0000       3.651086        99.3511 
 290   0.0000       3.651135        99.3524 
 291   0.0000      72.734119      1979.1960 
 292   0.0000     707.548941     19253.3855 

                    ********************************
                    * MULLIKEN POPULATION ANALYSIS *
                    ********************************

--------------------------------------------
MULLIKEN ATOMIC CHARGES AND SPIN POPULATIONS
--------------------------------------------
   0 Hf:    0.564574    1.470737
   1 C :    0.155183    0.157987
   2 C :    0.155594    0.158459
   3 C :    0.155160    0.157964
   4 C :    0.155613    0.158474
   5 O :   -0.082139    0.096927
   6 O :   -0.083283    0.096563
   7 O :   -0.082135    0.096916
   8 O :   -0.083201    0.096505
   9 C :    0.155376    0.158103
  10 C :    0.155380    0.158118
  11 O :   -0.083041    0.096606
  12 O :   -0.083081    0.096640
Sum of atomic charges         :    1.0000000
Sum of atomic spin populations:    3.0000000

-----------------------------------------------------
MULLIKEN REDUCED ORBITAL CHARGES AND SPIN POPULATIONS
-----------------------------------------------------
CHARGE
  0 Hfs       :     3.116698  s :     3.116698
      pz      :     1.927594  p :     5.782972
      px      :     1.927292
      py      :     1.928087
      dz2     :     0.516603  d :     2.467486
      dxz     :     0.478364
      dyz     :     0.477408
      dx2y2   :     0.517642
      dxy     :     0.477468
      f0      :     0.019925  f :     0.068271
      f+1     :     0.009407
      f-1     :     0.009049
      f+2     :     0.002788
      f-2     :     0.000084
      f+3     :     0.013384
      f-3     :     0.013634
  1 C s       :     3.552138  s :     3.552138
      pz      :     0.602276  p :     2.221800
      px      :     1.020413
      py      :     0.599112
      dz2     :     0.001880  d :     0.070879
      dxz     :     0.029009
      dyz     :     0.002989
      dx2y2   :     0.007486
      dxy     :     0.029515
  2 C s       :     3.551964  s :     3.551964
      pz      :     0.598705  p :     2.221129
      px      :     0.599090
      py      :     1.023334
      dz2     :     0.001510  d :     0.071313
      dxz     :     0.002655
      dyz     :     0.029839
      dx2y2   :     0.007554
      dxy     :     0.029755
  3 C s       :     3.552129  s :     3.552129
      pz      :     0.602255  p :     2.221824
      px      :     1.020463
      py      :     0.599106
      dz2     :     0.001879  d :     0.070887
      dxz     :     0.029014
      dyz     :     0.002990
      dx2y2   :     0.007485
      dxy     :     0.029519
  4 C s       :     3.551936  s :     3.551936
      pz      :     0.598690  p :     2.221137
      px      :     0.599101
      py      :     1.023346
      dz2     :     0.001508  d :     0.071314
      dxz     :     0.002655
      dyz     :     0.029837
      dx2y2   :     0.007553
      dxy     :     0.029760
  5 O s       :     3.760384  s :     3.760384
      pz      :     1.475876  p :     4.256506
      px      :     1.475691
      py      :     1.304939
      dz2     :     0.004158  d :     0.065249
      dxz     :    -0.000013
      dyz     :     0.024342
      dx2y2   :     0.012441
      dxy     :     0.024321
  6 O s       :     3.761491  s :     3.761491
      pz      :     1.474414  p :     4.256575
      px      :     1.306449
      py      :     1.475713
      dz2     :     0.004561  d :     0.065217
      dxz     :     0.023948
      dyz     :     0.000180
      dx2y2   :     0.012408
      dxy     :     0.024121
  7 O s       :     3.760385  s :     3.760385
      pz      :     1.475870  p :     4.256501
      px      :     1.475689
      py      :     1.304942
      dz2     :     0.004155  d :     0.065249
      dxz     :    -0.000013
      dyz     :     0.024343
      dx2y2   :     0.012443
      dxy     :     0.024321
  8 O s       :     3.761453  s :     3.761453
      pz      :     1.474381  p :     4.256527
      px      :     1.306471
      py      :     1.475675
      dz2     :     0.004561  d :     0.065221
      dxz     :     0.023947
      dyz     :     0.000181
      dx2y2   :     0.012413
      dxy     :     0.024120
  9 C s       :     3.551976  s :     3.551976
      pz      :     1.020476  p :     2.221679
      px      :     0.602511
      py      :     0.598692
      dz2     :     0.010803  d :     0.070969
      dxz     :     0.028969
      dyz     :     0.029606
      dx2y2   :    -0.001378
      dxy     :     0.002969
 10 C s       :     3.551985  s :     3.551985
      pz      :     1.020450  p :     2.221670
      px      :     0.602515
      py      :     0.598704
      dz2     :     0.010805  d :     0.070965
      dxz     :     0.028967
      dyz     :     0.029603
      dx2y2   :    -0.001378
      dxy     :     0.002969
 11 O s       :     3.761292  s :     3.761292
      pz      :     1.306355  p :     4.256525
      px      :     1.474312
      py      :     1.475859
      dz2     :     0.016699  d :     0.065223
      dxz     :     0.023947
      dyz     :     0.024152
      dx2y2   :     0.000254
      dxy     :     0.000171
 12 O s       :     3.761306  s :     3.761306
      pz      :     1.306343  p :     4.256554
      px      :     1.474333
      py      :     1.475877
      dz2     :     0.016697  d :     0.065221
      dxz     :     0.023947
      dyz     :     0.024152
      dx2y2   :     0.000254
      dxy     :     0.000171

SPIN
  0 Hfs       :    -0.019440  s :    -0.019440
      pz      :    -0.001952  p :    -0.005990
      px      :    -0.001904
      py      :    -0.002135
      dz2     :     0.069510  d :     1.500113
      dxz     :     0.446834
      dyz     :     0.460179
      dx2y2   :     0.064933
      dxy     :     0.458658
      f0      :    -0.001362  f :    -0.003945
      f+1     :    -0.000502
      f-1     :    -0.000469
      f+2     :     0.000049
      f-2     :     0.000003
      f+3     :    -0.000818
      f-3     :    -0.000847
  1 C s       :     0.010375  s :     0.010375
      pz      :     0.055391  p :     0.103605
      px      :    -0.007639
      py      :     0.055854
      dz2     :    -0.000394  d :     0.044006
      dxz     :     0.020471
      dyz     :     0.003340
      dx2y2   :    -0.000322
      dxy     :     0.020911
  2 C s       :     0.010587  s :     0.010587
      pz      :     0.055926  p :     0.103996
      px      :     0.055837
      py      :    -0.007768
      dz2     :    -0.000812  d :     0.043876
      dxz     :     0.003078
      dyz     :     0.021092
      dx2y2   :    -0.000509
      dxy     :     0.021028
  3 C s       :     0.010391  s :     0.010391
      pz      :     0.055373  p :     0.103570
      px      :    -0.007642
      py      :     0.055840
      dz2     :    -0.000394  d :     0.044003
      dxz     :     0.020468
      dyz     :     0.003341
      dx2y2   :    -0.000319
      dxy     :     0.020908
  4 C s       :     0.010603  s :     0.010603
      pz      :     0.055913  p :     0.103994
      px      :     0.055848
      py      :    -0.007768
      dz2     :    -0.000813  d :     0.043877
      dxz     :     0.003078
      dyz     :     0.021089
      dx2y2   :    -0.000509
      dxy     :     0.021032
  5 O s       :    -0.012612  s :    -0.012612
      pz      :     0.057918  p :     0.113142
      px      :     0.057862
      py      :    -0.002638
      dz2     :    -0.000020  d :    -0.003603
      dxz     :    -0.000054
      dyz     :    -0.001717
      dx2y2   :    -0.000102
      dxy     :    -0.001711
  6 O s       :    -0.012943  s :    -0.012943
      pz      :     0.057483  p :     0.113098
      px      :    -0.002278
      py      :     0.057893
      dz2     :    -0.000062  d :    -0.003592
      dxz     :    -0.001664
      dyz     :    -0.000069
      dx2y2   :    -0.000099
      dxy     :    -0.001699
  7 O s       :    -0.012617  s :    -0.012617
      pz      :     0.057911  p :     0.113136
      px      :     0.057864
      py      :    -0.002639
      dz2     :    -0.000020  d :    -0.003603
      dxz     :    -0.000054
      dyz     :    -0.001716
      dx2y2   :    -0.000102
      dxy     :    -0.001712
  8 O s       :    -0.012950  s :    -0.012950
      pz      :     0.057457  p :     0.113045
      px      :    -0.002280
      py      :     0.057868
      dz2     :    -0.000062  d :    -0.003591
      dxz     :    -0.001664
      dyz     :    -0.000069
      dx2y2   :    -0.000099
      dxy     :    -0.001698
  9 C s       :     0.010457  s :     0.010457
      pz      :    -0.007604  p :     0.103674
      px      :     0.055377
      py      :     0.055901
      dz2     :     0.000156  d :     0.043972
      dxz     :     0.020395
      dyz     :     0.020967
      dx2y2   :    -0.000867
      dxy     :     0.003321
 10 C s       :     0.010450  s :     0.010450
      pz      :    -0.007603  p :     0.103694
      px      :     0.055387
      py      :     0.055910
      dz2     :     0.000155  d :     0.043974
      dxz     :     0.020397
      dyz     :     0.020968
      dx2y2   :    -0.000867
      dxy     :     0.003321
 11 O s       :    -0.012874  s :    -0.012874
      pz      :    -0.002280  p :     0.113074
      px      :     0.057437
      py      :     0.057917
      dz2     :    -0.000164  d :    -0.003594
      dxz     :    -0.001662
      dyz     :    -0.001703
      dx2y2   :     0.000002
      dxy     :    -0.000068
 12 O s       :    -0.012870  s :    -0.012870
      pz      :    -0.002279  p :     0.113105
      px      :     0.057452
      py      :     0.057931
      dz2     :    -0.000164  d :    -0.003594
      dxz     :    -0.001662
      dyz     :    -0.001703
      dx2y2   :     0.000002
      dxy     :    -0.000068


                     *******************************
                     * LOEWDIN POPULATION ANALYSIS *
                     *******************************

-------------------------------------------
LOEWDIN ATOMIC CHARGES AND SPIN POPULATIONS
-------------------------------------------
   0 Hf:    0.325110    1.318472
   1 C :    0.154567    0.159953
   2 C :    0.154622    0.159968
   3 C :    0.154562    0.159917
   4 C :    0.154617    0.159965
   5 O :   -0.042111    0.120290
   6 O :   -0.042133    0.120338
   7 O :   -0.042102    0.120285
   8 O :   -0.042075    0.120288
   9 C :    0.154575    0.159939
  10 C :    0.154577    0.159960
  11 O :   -0.042090    0.120298
  12 O :   -0.042121    0.120327

----------------------------------------------------
LOEWDIN REDUCED ORBITAL CHARGES AND SPIN POPULATIONS
----------------------------------------------------
CHARGE
  0 Hfs       :     2.052206  s :     2.052206
      pz      :     2.221579  p :     6.664867
      px      :     2.221647
      py      :     2.221642
      dz2     :     0.625883  d :     2.723494
      dxz     :     0.492828
      dyz     :     0.488289
      dx2y2   :     0.627722
      dxy     :     0.488772
      f0      :     0.070416  f :     0.234322
      f+1     :     0.031813
      f-1     :     0.030559
      f+2     :     0.007556
      f-2     :     0.000210
[...]
     25       0.013202  -0.225009  -0.012999   0.005319   0.010537   0.008625
     26      -0.002627   0.013304  -0.224571   0.005415   0.034459   0.027347
     27       0.008444   0.026571  -0.443605  -0.029894   0.019094  -0.026972
     28       0.445474   0.025897   0.010157  -0.000497   0.001118   0.000942
     29      -0.000513  -0.008096   0.038268  -0.318436   0.251245  -0.280964
     30      -0.008459  -0.026571   0.443600   0.029890  -0.019072   0.026912
     31      -0.445474  -0.025911  -0.010155   0.000431  -0.001062  -0.001098
     32       0.000368   0.008083  -0.038230   0.318447  -0.251251   0.280971
     33      -0.004488  -0.014203   0.224091  -0.029225   0.025144  -0.026225
     34      -0.225323  -0.013075  -0.005144   0.002221  -0.002092   0.001235
     35      -0.002043  -0.004562  -0.023031  -0.322064   0.253546  -0.290285
     36       0.004492   0.014205  -0.224089   0.029203  -0.025135   0.026231
     37       0.225325   0.013079   0.005143  -0.002289   0.002140  -0.001248
     38       0.002080   0.004562   0.023028   0.322076  -0.253550   0.290286
                 24         25         26         27         28         29    
      0      -0.000003   0.000005   0.000015   0.000176   0.000044   0.000281
      1      -0.000001   0.000001   0.000005   0.000252   0.000150   0.000026
      2      -0.000011   0.000011  -0.000005  -0.000299   0.000445   0.000249
      3      -0.023643  -0.031307   0.018200  -0.002709   0.041375   0.011868
      4      -0.054055   0.118400   0.449931   0.425297   0.174689  -0.000590
      5      -0.251138  -0.387361   0.071171  -0.166847   0.403598   0.122675
      6      -0.018739   0.096283   0.458396  -0.033189   0.078183  -0.460123
      7      -0.000103  -0.002054  -0.014143   0.001089  -0.001439   0.014066
      8       0.395203  -0.243497   0.067687   0.179080  -0.427417  -0.086448
      9       0.023651   0.031263  -0.018376  -0.002555   0.041456   0.011845
     10       0.054073  -0.118429  -0.450045   0.425239   0.174601  -0.000386
     11       0.250985   0.387378  -0.071180  -0.166887   0.403649   0.122687
     12       0.018787  -0.096366  -0.458647  -0.033227   0.078081  -0.459922
     13       0.000119   0.002031   0.014067   0.001119  -0.001361   0.013935
     14      -0.394947   0.243407  -0.067605   0.179165  -0.427611  -0.086529
     15       0.006909  -0.035770  -0.169855   0.013497  -0.031553   0.185720
     16      -0.000088   0.001559   0.005429   0.000056   0.001094  -0.006110
     17      -0.146512   0.090243  -0.025132  -0.072450   0.172629   0.034879
     18       0.009641   0.011717  -0.009136   0.000492  -0.017094  -0.003581
     19       0.020013  -0.043810  -0.166616  -0.172080  -0.070547   0.000223
     20       0.092948   0.143439  -0.026087   0.067532  -0.162910  -0.049623
     21      -0.006932   0.035809   0.169972   0.013513  -0.031517   0.185654
     22       0.000076  -0.001545  -0.005396   0.000108   0.001119  -0.006114
     23       0.146394  -0.090201   0.025094  -0.072479   0.172692   0.034906
     24      -0.009634  -0.011718   0.009136   0.000492  -0.017081  -0.003614
     25      -0.020020   0.043822   0.166663  -0.172059  -0.070518   0.000157
     26      -0.092875  -0.143445   0.026099   0.067539  -0.162927  -0.049621
     27       0.238641   0.394358  -0.073801   0.034515  -0.119766   0.440089
     28      -0.398945   0.221898  -0.105987  -0.431876  -0.177324  -0.012742
     29      -0.023692  -0.036333   0.006924  -0.005363   0.011465  -0.040310
     30      -0.238635  -0.394323   0.073935   0.034527  -0.119825   0.440095
     31       0.398949  -0.221901   0.106016  -0.431951  -0.177124  -0.012686
     32       0.023817   0.036206  -0.006889  -0.005519   0.011387  -0.040262
     33      -0.088410  -0.146200   0.027392  -0.013981   0.048554  -0.177594
     34       0.147874  -0.082235   0.039166   0.174732   0.071612   0.005185
     35       0.008487   0.011965  -0.001743   0.001481  -0.002860   0.016409
     36       0.088413   0.146178  -0.027454  -0.013991   0.048573  -0.177592
     37      -0.147876   0.082235  -0.039180   0.174757   0.071545   0.005166
     38      -0.008488  -0.011968   0.001749   0.001485  -0.002870   0.016424
                 30         31         32         33         34         35    
      0       0.004286  -0.010970  -0.058890  -0.001089   0.000058   0.000272
      1      -0.059359   0.003224  -0.004891   0.000178   0.000999   0.000507
      2       0.004041   0.058839  -0.010615   0.000213  -0.000532   0.000972
      3       0.011117  -0.043779   0.006048  -0.552946   0.039182   0.082542
      4       0.467526  -0.020654   0.052114   0.016372  -0.002863  -0.003348
      5      -0.035444  -0.455126   0.126976   0.049671  -0.002657  -0.009092
      6      -0.045860   0.085817   0.452265   0.004135   0.015303   0.007492
      7      -0.006719  -0.001575  -0.014742   0.073336   0.495747   0.255809
      8      -0.032503  -0.450499   0.081155  -0.000253   0.001648  -0.001283
      9       0.011257  -0.043783   0.006075  -0.552864   0.039170   0.082539
     10       0.467486  -0.020673   0.052032   0.016520  -0.002873  -0.003371
     11      -0.035457  -0.455135   0.126976   0.049664  -0.002656  -0.009092
     12      -0.045912   0.085792   0.452191   0.004118   0.015205   0.007441
     13      -0.006727  -0.001528  -0.014641   0.073291   0.495739   0.255813
     14      -0.032497  -0.450574   0.081184  -0.000249   0.001672  -0.001271
     15       0.016740  -0.032078  -0.169184  -0.002636  -0.011638  -0.005807
     16      -0.013387   0.001385   0.004145  -0.055764  -0.376854  -0.194454
     17       0.012137   0.168615  -0.030341   0.000092  -0.001002   0.000516
     18      -0.003361   0.012207  -0.016179   0.420303  -0.029776  -0.062792
     19      -0.175003   0.007840  -0.019057  -0.012497   0.001719   0.002310
     20       0.013223   0.170388  -0.046147  -0.037820   0.002252   0.006485
     21       0.016763  -0.032071  -0.169161  -0.002623  -0.011564  -0.005770
     22      -0.013387   0.001379   0.004129  -0.055730  -0.376848  -0.194457
     23       0.012134   0.168638  -0.030350   0.000089  -0.001020   0.000507
     24      -0.003393   0.012214  -0.016167   0.420242  -0.029767  -0.062790
     25      -0.174990   0.007846  -0.019029  -0.012610   0.001727   0.002327
     26       0.013227   0.170393  -0.046150  -0.037814   0.002252   0.006484
     27      -0.030235   0.127829   0.451157   0.006880  -0.024213   0.044825
     28       0.461251  -0.027813   0.037497  -0.000531  -0.000640  -0.002855
     29       0.005192  -0.004535  -0.043380   0.054923  -0.262196   0.492403
     30      -0.030224   0.127849   0.451161   0.006878  -0.024198   0.044794
     31       0.461250  -0.027733   0.037474  -0.000546  -0.000569  -0.002989
     32       0.005328  -0.004540  -0.043340   0.054940  -0.262220   0.492418
     33       0.011461  -0.046464  -0.168907  -0.004748   0.018361  -0.034163
     34      -0.172706   0.010332  -0.014022   0.000318   0.000020   0.001931
     35      -0.000822   0.016094   0.012003  -0.041792   0.199314  -0.374299
     36       0.011459  -0.046469  -0.168911  -0.004746   0.018350  -0.034139
     37      -0.172706   0.010304  -0.014014   0.000330  -0.000034   0.002032
     38      -0.000854   0.016090   0.011988  -0.041805   0.199332  -0.374310
                 36         37         38    
      0      -0.000000   0.000000   0.000000
      1      -0.000000   0.000000   0.000000
      2       0.000000  -0.000000  -0.000000
      3      -0.055652  -0.458050  -0.328750
      4       0.001673   0.013763   0.009878
      5       0.005023   0.041320   0.029660
      6       0.013195   0.005630  -0.010212
      7       0.426173   0.181660  -0.330099
      8       0.000636   0.000264  -0.000491
      9       0.055682   0.458131   0.328757
     10      -0.001690  -0.013890  -0.009967
     11      -0.005026  -0.041327  -0.029660
     12      -0.013112  -0.005595   0.010149
     13      -0.426194  -0.181659   0.330103
     14      -0.000656  -0.000273   0.000506
     15      -0.009793  -0.004173   0.007429
     16      -0.316424  -0.134872   0.240006
     17      -0.000472  -0.000200   0.000358
     18       0.041323   0.340050   0.239016
     19      -0.001239  -0.010209  -0.007178
     20      -0.003728  -0.030677  -0.021559
     21       0.009732   0.004146  -0.007382
     22       0.316439   0.134873  -0.240010
     23       0.000487   0.000206  -0.000369
     24      -0.041346  -0.340111  -0.239022
     25       0.001251   0.010304   0.007243
     26       0.003730   0.030683   0.021560
     27       0.033837  -0.025424   0.030128
     28      -0.001486   0.001120  -0.001328
     29       0.369110  -0.277345   0.328717
     30      -0.033811   0.025403  -0.030107
     31       0.001586  -0.001195   0.001416
     32      -0.369096   0.277327  -0.328713
     33      -0.025125   0.018879  -0.021907
     34       0.001104  -0.000830   0.000964
     35      -0.274055   0.205906  -0.239006
     36       0.025106  -0.018865   0.021891
     37      -0.001177   0.000885  -0.001029
     38       0.274045  -0.205892   0.239004


-----------
IR SPECTRUM
-----------

 Mode   freq       eps      Int      T**2         TX        TY        TZ
       cm**-1   L/(mol*cm) km/mol    a.u.
----------------------------------------------------------------------------
  6:     35.97   0.000000    0.00  0.000000  ( 0.000305 -0.000010  0.000110)
  7:     36.25   0.000000    0.00  0.000000  (-0.000197 -0.000005  0.000280)
  8:     36.40   0.000000    0.00  0.000000  ( 0.000265 -0.000205 -0.000088)
  9:     53.70   0.000195    0.98  0.001130  ( 0.004362 -0.000030 -0.033336)
 10:     53.77   0.000195    0.98  0.001129  (-0.030556  0.013390 -0.003995)
 11:     53.87   0.000194    0.98  0.001121  (-0.013300 -0.030679 -0.001722)
 12:     57.51   0.000000    0.00  0.000000  ( 0.000000 -0.000001 -0.000002)
 13:     57.65   0.000000    0.00  0.000000  ( 0.000004 -0.000001  0.000013)
 14:     57.72   0.000000    0.00  0.000000  ( 0.000010  0.000006 -0.000004)
 15:    245.12   0.010178   51.43  0.012957  ( 0.004290 -0.083368  0.077387)
 16:    245.13   0.010180   51.45  0.012960  (-0.010329 -0.077479 -0.082769)
 17:    245.52   0.010169   51.39  0.012925  ( 0.113153 -0.003812 -0.010326)
 18:    271.19   0.000000    0.00  0.000000  (-0.000002  0.000003 -0.000013)
 19:    271.93   0.000000    0.00  0.000000  ( 0.000014 -0.000012 -0.000002)
 20:    273.24   0.000000    0.00  0.000000  ( 0.000001 -0.000001  0.000003)
 21:    275.81   0.000000    0.00  0.000000  (-0.000009 -0.000008  0.000002)
 22:    276.19   0.000000    0.00  0.000000  (-0.000001  0.000019 -0.000000)
 23:    298.53   0.000000    0.00  0.000000  ( 0.000003  0.000000 -0.000001)
 24:    322.65   0.000000    0.00  0.000000  ( 0.000004  0.000004  0.000013)
 25:    322.68   0.000000    0.00  0.000000  (-0.000006 -0.000005 -0.000012)
 26:    322.76   0.000000    0.00  0.000000  (-0.000017 -0.000013  0.000006)
 27:    349.49   0.000000    0.00  0.000000  (-0.000104 -0.000334  0.000381)
 28:    349.77   0.000001    0.00  0.000000  (-0.000121 -0.000213 -0.000637)
 29:    349.88   0.000000    0.00  0.000000  (-0.000408  0.000015 -0.000245)
 30:    375.23   0.004618   23.34  0.003841  (-0.004395  0.061674 -0.004197)
 31:    375.60   0.004653   23.51  0.003866  ( 0.011488 -0.003350 -0.061012)
 32:    375.77   0.004661   23.55  0.003871  ( 0.061019  0.005030  0.011048)
 33:   2155.26   0.378529  1912.93  0.054808  (-0.226910  0.037356  0.043865)
 34:   2155.27   0.378270  1911.62  0.054770  ( 0.012623  0.206072 -0.110204)
 35:   2155.28   0.378564  1913.11  0.054812  ( 0.056463  0.104457  0.201775)
 36:   2177.41   0.000000    0.00  0.000000  ( 0.000016  0.000007  0.000001)
 37:   2177.45   0.000000    0.00  0.000000  ( 0.000017 -0.000025 -0.000006)
 38:   2244.57   0.000000    0.00  0.000000  ( 0.000001  0.000000  0.000001)

* The epsilon (eps) is given for a Dirac delta lineshape.
** The dipole moment derivative (T) already includes vibrational overlap.

The first frequency considered to be a vibration is 6
The total number of vibrations considered is 33


--------------------------
THERMOCHEMISTRY AT 298.15K
--------------------------

Temperature         ... 298.15 K
Pressure            ... 1.00 atm
Total Mass          ... 346.55 AMU

Throughout the following assumptions are being made:
  (1) The electronic state is orbitally nondegenerate
      but the spin degeneracy is treated
  (2) There are no thermally accessible electronically excited states
  (3) Hindered rotations indicated by low frequency modes are not
      treated as such but are treated as vibrations and this may
      cause some error
  (4) All equations used are the standard statistical mechanics
      equations for an ideal gas
  (5) All vibrations are strictly harmonic

freq.      35.97  E(vib)   ...       0.54 
freq.      36.25  E(vib)   ...       0.54 
freq.      36.40  E(vib)   ...       0.54 
freq.      53.70  E(vib)   ...       0.52 
freq.      53.77  E(vib)   ...       0.52 
freq.      53.87  E(vib)   ...       0.52 
freq.      57.51  E(vib)   ...       0.51 
freq.      57.65  E(vib)   ...       0.51 
freq.      57.72  E(vib)   ...       0.51 
freq.     245.12  E(vib)   ...       0.31 
freq.     245.13  E(vib)   ...       0.31 
freq.     245.52  E(vib)   ...       0.31 
freq.     271.19  E(vib)   ...       0.29 
freq.     271.93  E(vib)   ...       0.29 
freq.     273.24  E(vib)   ...       0.29 
freq.     275.81  E(vib)   ...       0.28 
freq.     276.19  E(vib)   ...       0.28 
freq.     298.53  E(vib)   ...       0.26 
freq.     322.65  E(vib)   ...       0.25 
freq.     322.68  E(vib)   ...       0.25 
freq.     322.76  E(vib)   ...       0.25 
freq.     349.49  E(vib)   ...       0.23 
freq.     349.77  E(vib)   ...       0.23 
freq.     349.88  E(vib)   ...       0.23 
freq.     375.23  E(vib)   ...       0.21 
freq.     375.60  E(vib)   ...       0.21 
freq.     375.77  E(vib)   ...       0.21 
freq.    2155.26  E(vib)   ...       0.00 
freq.    2155.27  E(vib)   ...       0.00 
freq.    2155.28  E(vib)   ...       0.00 
freq.    2177.41  E(vib)   ...       0.00 
freq.    2177.45  E(vib)   ...       0.00 
freq.    2244.57  E(vib)   ...       0.00 

------------
INNER ENERGY
------------

The inner energy is: U= E(el) + E(ZPE) + E(vib) + E(rot) + E(trans)
    E(el)   - is the total energy from the electronic structure calculation
              = E(kin-el) + E(nuc-el) + E(el-el) + E(nuc-nuc)
    E(ZPE)  - the the zero temperature vibrational energy from the frequency calculation
    E(vib)  - the the finite temperature correction to E(ZPE) due to population
              of excited vibrational states
    E(rot)  - is the rotational thermal energy
    E(trans)- is the translational thermal energy

Summary of contributions to the inner energy U:
Electronic energy                ...   -726.93759212 Eh
Zero point energy                ...      0.04340948 Eh      27.24 kcal/mol
Thermal vibrational correction   ...      0.01496869 Eh       9.39 kcal/mol
Thermal rotational correction    ...      0.00141627 Eh       0.89 kcal/mol
Thermal translational correction ...      0.00141627 Eh       0.89 kcal/mol
-----------------------------------------------------------------------
Total thermal energy                   -726.87638141 Eh


Summary of corrections to the electronic energy:
(perhaps to be used in another calculation)
Total thermal correction                  0.01780123 Eh      11.17 kcal/mol
Non-thermal (ZPE) correction              0.04340948 Eh      27.24 kcal/mol
-----------------------------------------------------------------------
Total correction                          0.06121071 Eh      38.41 kcal/mol


--------
ENTHALPY
--------

The enthalpy is H = U + kB*T
                kB is Boltzmann's constant
Total free energy                 ...   -726.87638141 Eh 
Thermal Enthalpy correction       ...      0.00094421 Eh       0.59 kcal/mol
-----------------------------------------------------------------------
Total Enthalpy                    ...   -726.87543720 Eh


Note: Only C1 symmetry has been detected, increase convergence thresholds 
      if your molecule has a higher symmetry. Symmetry factor of 1.0 is   
      used for the rotational entropy correction. 
 

Note: Rotational entropy computed according to Herzberg 
Infrared and Raman Spectra, Chapter V,1, Van Nostrand Reinhold, 1945 
Point Group:  C1, Symmetry Number:   1  
Rotational constants in cm-1:     0.016309     0.016300     0.016292 

Vibrational entropy computed according to the QRRHO of S. Grimme
Chem.Eur.J. 2012 18 9955


-------
ENTROPY
-------

The entropy contributions are T*S = T*(S(el)+S(vib)+S(rot)+S(trans))
     S(el)   - electronic entropy
     S(vib)  - vibrational entropy
     S(rot)  - rotational entropy
     S(trans)- translational entropy
The entropies will be listed as multiplied by the temperature to get
units of energy

Electronic entropy                ...      0.00130891 Eh      0.82 kcal/mol
Vibrational entropy               ...      0.02762260 Eh     17.33 kcal/mol
Rotational entropy                ...      0.01534099 Eh      9.63 kcal/mol
Translational entropy             ...      0.02063146 Eh     12.95 kcal/mol
-----------------------------------------------------------------------
Final entropy term                ...      0.06490397 Eh     40.73 kcal/mol

In case the symmetry of your molecule has not been determined correctly
or in case you have a reason to use a different symmetry number we print 
out the resulting rotational entropy values for sn=1,12 :
 --------------------------------------------------------
|  sn= 1 | S(rot)=       0.01534099 Eh      9.63 kcal/mol|
|  sn= 2 | S(rot)=       0.01468653 Eh      9.22 kcal/mol|
|  sn= 3 | S(rot)=       0.01430370 Eh      8.98 kcal/mol|
|  sn= 4 | S(rot)=       0.01403208 Eh      8.81 kcal/mol|
|  sn= 5 | S(rot)=       0.01382139 Eh      8.67 kcal/mol|
|  sn= 6 | S(rot)=       0.01364925 Eh      8.57 kcal/mol|
|  sn= 7 | S(rot)=       0.01350370 Eh      8.47 kcal/mol|
|  sn= 8 | S(rot)=       0.01337762 Eh      8.39 kcal/mol|
|  sn= 9 | S(rot)=       0.01326641 Eh      8.32 kcal/mol|
|  sn=10 | S(rot)=       0.01316693 Eh      8.26 kcal/mol|
|  sn=11 | S(rot)=       0.01307694 Eh      8.21 kcal/mol|
|  sn=12 | S(rot)=       0.01299479 Eh      8.15 kcal/mol|
 --------------------------------------------------------


-------------------
GIBBS FREE ENERGY
-------------------

The Gibbs free energy is G = H - T*S

Total enthalpy                    ...   -726.87543720 Eh 
Total entropy correction          ...     -0.06490397 Eh    -40.73 kcal/mol
-----------------------------------------------------------------------
Final Gibbs free energy         ...   -726.94034117 Eh

For completeness - the Gibbs free energy minus the electronic energy
G-E(el)                           ...     -0.00274905 Eh     -1.73 kcal/mol


Timings for individual modules:

Sum of individual times         ...      842.531 sec (=  14.042 min)
GTO integral calculation        ...        4.944 sec (=   0.082 min)   0.6 %
SCF iterations                  ...      202.831 sec (=   3.381 min)  24.1 %
SCF Gradient evaluation         ...       61.221 sec (=   1.020 min)   7.3 %
Geometry relaxation             ...        0.169 sec (=   0.003 min)   0.0 %
Analytical frequency calculation...      573.366 sec (=   9.556 min)  68.1 %
                             ****ORCA TERMINATED NORMALLY****
TOTAL RUN TIME: 0 days 0 hours 14 minutes 3 seconds 457 msec
