
                                 *****************
                                 * O   R   C   A *
                                 *****************

                                            #,                                       
                                            ###                                      
                                            ####                                     
                                            #####                                    
                                            ######                                   
                                           ########,                                 
                                     ,,################,,,,,                         
                               ,,#################################,,                 
                          ,,##########################################,,             
                       ,#########################################, ''#####,          
                    ,#############################################,,   '####,        
                  ,##################################################,,,,####,       
                ,###########''''           ''''###############################       
              ,#####''   ,,,,##########,,,,          '''####'''          '####       
            ,##' ,,,,###########################,,,                        '##       
           ' ,,###''''                  '''############,,,                           
         ,,##''                                '''############,,,,        ,,,,,,###''
      ,#''                                            '''#######################'''  
     '                                                          ''''####''''         
             ,#######,   #######,   ,#######,      ##                                
            ,#'     '#,  ##    ##  ,#'     '#,    #''#        ######   ,####,        
            ##       ##  ##   ,#'  ##            #'  '#       #        #'  '#        
            ##       ##  #######   ##           ,######,      #####,   #    #        
            '#,     ,#'  ##    ##  '#,     ,#' ,#      #,         ##   #,  ,#        
             '#######'   ##     ##  '#######'  #'      '#     #####' # '####'        



                  #######################################################
                  #                        -***-                        #
                  #          Department of theory and spectroscopy      #
                  #    Directorship and core code : Frank Neese         #
                  #        Max Planck Institute fuer Kohlenforschung    #
                  #                Kaiser Wilhelm Platz 1               #
                  #                 D-45470 Muelheim/Ruhr               #
                  #                      Germany                        #
                  #                                                     #
                  #                  All rights reserved                #
                  #                        -***-                        #
                  #######################################################



                         Program Version 5.0.4 -  RELEASE  -

 With contributions from (in alphabetic order):
   Daniel Aravena         : Magnetic Suceptibility
   Michael Atanasov       : Ab Initio Ligand Field Theory (pilot matlab implementation)
   Alexander A. Auer      : GIAO ZORA, VPT2 properties, NMR spectrum
   Ute Becker             : Parallelization
   Giovanni Bistoni       : ED, misc. LED, open-shell LED, HFLD
   Martin Brehm           : Molecular dynamics
   Dmytro Bykov           : SCF Hessian
   Vijay G. Chilkuri      : MRCI spin determinant printing, contributions to CSF-ICE
   Dipayan Datta          : RHF DLPNO-CCSD density
   Achintya Kumar Dutta   : EOM-CC, STEOM-CC
   Dmitry Ganyushin       : Spin-Orbit,Spin-Spin,Magnetic field MRCI
   Miquel Garcia          : C-PCM and meta-GGA Hessian, CC/C-PCM, Gaussian charge scheme
   Yang Guo               : DLPNO-NEVPT2, F12-NEVPT2, CIM, IAO-localization
   Andreas Hansen         : Spin unrestricted coupled pair/coupled cluster methods
   Benjamin Helmich-Paris : MC-RPA, TRAH-SCF, COSX integrals
   Lee Huntington         : MR-EOM, pCC
   Robert Izsak           : Overlap fitted RIJCOSX, COSX-SCS-MP3, EOM
   Marcus Kettner         : VPT2
   Christian Kollmar      : KDIIS, OOCD, Brueckner-CCSD(T), CCSD density, CASPT2, CASPT2-K
   Simone Kossmann        : Meta GGA functionals, TD-DFT gradient, OOMP2, MP2 Hessian
   Martin Krupicka        : Initial AUTO-CI
   Lucas Lang             : DCDCAS
   Marvin Lechner         : AUTO-CI (C++ implementation), FIC-MRCC
   Dagmar Lenk            : GEPOL surface, SMD
   Dimitrios Liakos       : Extrapolation schemes; Compound Job, initial MDCI parallelization
   Dimitrios Manganas     : Further ROCIS development; embedding schemes
   Dimitrios Pantazis     : SARC Basis sets
   Anastasios Papadopoulos: AUTO-CI, single reference methods and gradients
   Taras Petrenko         : DFT Hessian,TD-DFT gradient, ASA, ECA, R-Raman, ABS, FL, XAS/XES, NRVS
   Peter Pinski           : DLPNO-MP2, DLPNO-MP2 Gradient
   Christoph Reimann      : Effective Core Potentials
   Marius Retegan         : Local ZFS, SOC
   Christoph Riplinger    : Optimizer, TS searches, QM/MM, DLPNO-CCSD(T), (RO)-DLPNO pert. Triples
   Tobias Risthaus        : Range-separated hybrids, TD-DFT gradient, RPA, STAB
   Michael Roemelt        : Original ROCIS implementation
   Masaaki Saitow         : Open-shell DLPNO-CCSD energy and density
   Barbara Sandhoefer     : DKH picture change effects
   Avijit Sen             : IP-ROCIS
   Kantharuban Sivalingam : CASSCF convergence, NEVPT2, FIC-MRCI
   Bernardo de Souza      : ESD, SOC TD-DFT
   Georgi Stoychev        : AutoAux, RI-MP2 NMR, DLPNO-MP2 response
   Willem Van den Heuvel  : Paramagnetic NMR
   Boris Wezisla          : Elementary symmetry handling
   Frank Wennmohs         : Technical directorship


 We gratefully acknowledge several colleagues who have allowed us to
 interface, adapt or use parts of their codes:
   Stefan Grimme, W. Hujo, H. Kruse, P. Pracht,  : VdW corrections, initial TS optimization,
                  C. Bannwarth, S. Ehlert          DFT functionals, gCP, sTDA/sTD-DF
   Ed Valeev, F. Pavosevic, A. Kumar             : LibInt (2-el integral package), F12 methods
   Garnet Chan, S. Sharma, J. Yang, R. Olivares  : DMRG
   Ulf Ekstrom                                   : XCFun DFT Library
   Mihaly Kallay                                 : mrcc  (arbitrary order and MRCC methods)
   Jiri Pittner, Ondrej Demel                    : Mk-CCSD
   Frank Weinhold                                : gennbo (NPA and NBO analysis)
   Christopher J. Cramer and Donald G. Truhlar   : smd solvation model
   Lars Goerigk                                  : TD-DFT with DH, B97 family of functionals
   V. Asgeirsson, H. Jonsson                     : NEB implementation
   FAccTs GmbH                                   : IRC, NEB, NEB-TS, DLPNO-Multilevel, CI-OPT
                                                   MM, QMMM, 2- and 3-layer-ONIOM, Crystal-QMMM,
                                                   LR-CPCM, SF, NACMEs, symmetry and pop. for TD-DFT,
                                                   nearIR, NL-DFT gradient (VV10), updates on ESD,
                                                   ML-optimized integration grids
   S Lehtola, MJT Oliveira, MAL Marques          : LibXC Library
   Liviu Ungur et al                             : ANISO software


 Your calculation uses the libint2 library for the computation of 2-el integrals
 For citations please refer to: http://libint.valeyev.net

 Your ORCA version has been built with support for libXC version: 5.1.0
 For citations please refer to: https://tddft.org/programs/libxc/

 This ORCA versions uses:
   CBLAS   interface :  Fast vector & matrix operations
   LAPACKE interface :  Fast linear algebra routines
   Shared memory     :  Shared parallel matrices


================================================================================

cite the ECPs for Mo [Def2-ECP] as follows:
Ce-Yb(ecp-28): M. Dolg, H. Stoll, H.Preuss, J. Chem. Phys., 1989, 90, 1730-1734.
Y-Cd(ecp-28), Hf-Hg(ecp-46): D. Andrae,U. Haeussermann, M. Dolg, H. Stoll, H. Preuss, Theor. Chim. Acta, 1990, 77, 123-141.
In-Sb(ecp-28), Tl-Bi(ecp-46): B. Metz, H. Stoll, M. Dolg, J. Chem. Phys., 2000, 113, 2563-2569.
Te-Xe(ecp-28), Po-Rn(ecp-46): K. A. Peterson, D. Figgen, E. Goll, H. Stoll, M. Dolg, J. Chem. Phys., 2003, 119, 11113-11123.
Rb(ecp-28), Cs(ecp-46): T. Leininger, A. Nicklass, W. Kuechle, H. Stoll, M. Dolg, A. Bergner, Chem. Phys. Lett., 1996, 255, 274-280.
Sr(ecp-28), Ba(ecp-46): M. Kaupp, P. V. Schleyer, H. Stoll and H. Preuss, J. Chem. Phys., 1991, 94, 1360-1366.
La(ecp-46): M. Dolg, H. Stoll, A. Savin, H. Preuss, Theor. Chim. Acta, 1989, 75, 173-194.
Lu(ecp-28): X. Cao, M. Dolg, J. Chem. Phys., 2001, 115, 7348-7355.

ECP parameters for Mo [Def2-ECP] have been obtained from:
TURBOMOLE (7.0.2)

----- Orbital basis set information -----
Your calculation utilizes the basis: def2-SVPD
   F. Weigend and R. Ahlrichs, Phys. Chem. Chem. Phys. 7, 3297 (2005).
   D. Rappoport and F. Furche, J. Chem. Phys. 133 134105 (2010).

----- AuxJ basis set information -----
Your calculation utilizes the auxiliary basis: def2/J
   F. Weigend, Phys. Chem. Chem. Phys. 8, 1057 (2006).

================================================================================
                                        WARNINGS
                       Please study these warnings very carefully!
================================================================================


WARNING: Geometry Optimization
  ===> : Switching off AutoStart
         For restart on a previous wavefunction, please use MOREAD

INFO   : the flag for use of the SHARK integral package has been found!

================================================================================
                                       INPUT FILE
================================================================================
NAME = MoCO5F-.inp
|  1> !B3LYP def2-SVPD OPT FREQ TightSCF PAL8
|  2> 
|  3> %scf
|  4>   MaxIter 300
|  5> end
|  6> 
|  7> * xyz -1 1 
|  8> Mo        -1.31350        0.80310       -0.04608
|  9> C         -1.29468        2.94876        0.06394
| 10> C         -3.46135        0.82385       -0.09599
| 11> C          0.83438        0.78176        0.00232
| 12> C         -1.33254       -1.34242       -0.15758
| 13> O         -1.28475        4.07521        0.12132
| 14> O          1.96204        0.77050        0.02744
| 15> O         -1.34270       -2.46890       -0.21615
| 16> O         -4.58900        0.83447       -0.12234
| 17> C         -1.26289        0.91449       -2.19106
| 18> O         -1.23618        0.97331       -3.31720
| 19> F         -1.35967        0.70159        1.92187
| 20> **                         ****END OF INPUT****
================================================================================

                       *****************************
                       * Geometry Optimization Run *
                       *****************************

Geometry optimization settings:
Update method            Update   .... BFGS
Choice of coordinates    CoordSys .... Z-matrix Internals
Initial Hessian          InHess   .... Almoef's Model

Convergence Tolerances:
Energy Change            TolE     ....  5.0000e-06 Eh
Max. Gradient            TolMAXG  ....  3.0000e-04 Eh/bohr
RMS Gradient             TolRMSG  ....  1.0000e-04 Eh/bohr
Max. Displacement        TolMAXD  ....  4.0000e-03 bohr
RMS Displacement         TolRMSD  ....  2.0000e-03 bohr
Strict Convergence                ....  False
------------------------------------------------------------------------------
                        ORCA OPTIMIZATION COORDINATE SETUP
------------------------------------------------------------------------------

The optimization will be done in new redundant internal coordinates
Making redundant internal coordinates   ...  (new redundants) done
Evaluating the initial hessian          ...  (Almloef) done
Evaluating the coordinates              ...  done
Calculating the B-matrix                .... done
Calculating the G-matrix                .... done
Diagonalizing the G-matrix              .... done
The first mode is                       ....    3
The number of degrees of freedom        ....   30

    -----------------------------------------------------------------
                    Redundant Internal Coordinates


    -----------------------------------------------------------------
         Definition                    Initial Value    Approx d2E/dq
    -----------------------------------------------------------------
      1. B(C   1,Mo  0)                  2.1486         0.389607   
      2. B(C   2,Mo  0)                  2.1485         0.389652   
      3. B(C   3,Mo  0)                  2.1485         0.389650   
      4. B(C   4,Mo  0)                  2.1485         0.389696   
      5. B(O   5,C   1)                  1.1280         1.465389   
      6. B(O   6,C   3)                  1.1280         1.465164   
      7. B(O   7,C   4)                  1.1280         1.464887   
      8. B(O   8,C   2)                  1.1280         1.465100   
      9. B(C   9,Mo  0)                  2.1485         0.389743   
     10. B(O  10,C   9)                  1.1280         1.465189   
     11. B(F  11,Mo  0)                  1.9711         0.622261   
     12. A(C   3,Mo  0,C   9)           89.9688         0.462012   
     13. A(C   2,Mo  0,C   9)           89.9918         0.462012   
     14. A(C   2,Mo  0,F  11)           90.0157         0.499640   
     15. A(C   3,Mo  0,C   4)           90.0063         0.462001   
     16. A(C   4,Mo  0,C   9)           90.0098         0.462021   
     17. A(C   2,Mo  0,C   4)           89.9759         0.462002   
     18. A(C   4,Mo  0,F  11)           90.0102         0.499650   
     19. A(C   1,Mo  0,C   2)           90.0173         0.461983   
     20. A(C   1,Mo  0,F  11)           90.0292         0.499629   
     21. A(C   3,Mo  0,F  11)           90.0237         0.499639   
     22. A(C   1,Mo  0,C   3)           90.0005         0.461982   
     23. A(C   1,Mo  0,C   9)           89.9508         0.462002   
     24. L(Mo  0,C   1,O   5,C   9, 2) 180.0029         0.521267   
     25. L(Mo  0,C   1,O   5,C   9, 1) 179.9807         0.521267   
     26. L(Mo  0,C   2,O   8,C   4, 2) 180.0095         0.521259   
     27. L(Mo  0,C   2,O   8,C   4, 1) 179.9857         0.521259   
     28. L(Mo  0,C   3,O   6,C   9, 1) 179.9854         0.521263   
     29. L(Mo  0,C   3,O   6,C   9, 2) 180.0051         0.521263   
     30. L(Mo  0,C   4,O   7,C   2, 2) 179.9983         0.521256   
     31. L(Mo  0,C   4,O   7,C   2, 1) 179.9917         0.521256   
     32. L(Mo  0,C   9,O  10,C   1, 2) 179.9903         0.521288   
     33. L(Mo  0,C   9,O  10,C   1, 1) 179.9827         0.521288   
    -----------------------------------------------------------------

Number of atoms                         .... 12
Number of degrees of freedom            .... 33

         *************************************************************
         *                GEOMETRY OPTIMIZATION CYCLE   1            *
         *************************************************************
---------------------------------
CARTESIAN COORDINATES (ANGSTROEM)
---------------------------------
  Mo    -1.313500    0.803100   -0.046080
  C     -1.294680    2.948760    0.063940
  C     -3.461350    0.823850   -0.095990
  C      0.834380    0.781760    0.002320
  C     -1.332540   -1.342420   -0.157580
  O     -1.284750    4.075210    0.121320
  O      1.962040    0.770500    0.027440
  O     -1.342700   -2.468900   -0.216150
  O     -4.589000    0.834470   -0.122340
  C     -1.262890    0.914490   -2.191060
  O     -1.236180    0.973310   -3.317200
  F     -1.359670    0.701590    1.921870

----------------------------
CARTESIAN COORDINATES (A.U.)
----------------------------
  NO LB      ZA    FRAG     MASS         X           Y           Z
   0 Mo   14.0000*   0    95.940   -2.482155    1.517639   -0.087079
   1 C     6.0000    0    12.011   -2.446591    5.572349    0.120829
   2 C     6.0000    0    12.011   -6.541004    1.556851   -0.181395
   3 C     6.0000    0    12.011    1.576750    1.477312    0.004384
   4 C     6.0000    0    12.011   -2.518136   -2.536806   -0.297783
   5 O     8.0000    0    15.999   -2.427826    7.701031    0.229262
   6 O     8.0000    0    15.999    3.707718    1.456034    0.051854
   7 O     8.0000    0    15.999   -2.537335   -4.665545   -0.408464
   8 O     8.0000    0    15.999   -8.671953    1.576920   -0.231189
   9 C     6.0000    0    12.011   -2.386516    1.728136   -4.140503
  10 O     8.0000    0    15.999   -2.336042    1.839289   -6.268600
  11 F     9.0000    0    18.998   -2.569404    1.325813    3.631808
* core charge reduced due to ECP

--------------------------------
INTERNAL COORDINATES (ANGSTROEM)
--------------------------------
 Mo     0   0   0     0.000000000000     0.00000000     0.00000000
 C      1   0   0     2.148561246137     0.00000000     0.00000000
 C      1   2   0     2.148530007493    90.01726712     0.00000000
 C      1   2   3     2.148531230864    90.00050038   179.96057915
 C      1   2   3     2.148499672330   179.95995791    80.19576266
 O      2   1   3     1.127954197563   179.98058743   263.86159058
 O      4   1   2     1.127995956376   179.98497213   256.10025432
 O      5   1   3     1.128047366426   179.99158525     8.44260141
 O      3   1   2     1.128007814423   179.98421491   154.78784859
 C      1   2   3     2.148466500693    89.95076296    89.99173586
 O     10   1   2     1.127991363486   179.98142016    21.78162527
 F      1   2   3     1.971107087781    90.02923620   269.98429083

---------------------------
INTERNAL COORDINATES (A.U.)
---------------------------
 Mo     0   0   0     0.000000000000     0.00000000     0.00000000
 C      1   0   0     4.060192337155     0.00000000     0.00000000
 C      1   2   0     4.060133304674    90.01726712     0.00000000
 C      1   2   3     4.060135616511    90.00050038   179.96057915
 C      1   2   3     4.060075979522   179.95995791    80.19576266
 O      2   1   3     2.131524525001   179.98058743   263.86159058
 O      4   1   2     2.131603437721   179.98497213   256.10025432
 O      5   1   3     2.131700588636   179.99158525     8.44260141
 O      3   1   2     2.131625846183   179.98421491   154.78784859
 C      1   2   3     4.060013294214    89.95076296    89.99173586
 O     10   1   2     2.131594758418   179.98142016    21.78162527
 F      1   2   3     3.724852576537    90.02923620   269.98429083

---------------------
BASIS SET INFORMATION
---------------------
There are 4 groups of distinct atoms

 Group   1 Type Mo  : 7s7p5d1f contracted to 5s4p2d1f pattern {31111/4111/41/1}
 Group   2 Type C   : 8s4p2d contracted to 4s2p2d pattern {5111/31/11}
 Group   3 Type O   : 8s5p2d contracted to 4s3p2d pattern {5111/311/11}
 Group   4 Type F   : 8s5p2d contracted to 4s3p2d pattern {5111/311/11}

Atom   0Mo   basis set group =>   1
Atom   1C    basis set group =>   2
Atom   2C    basis set group =>   2
Atom   3C    basis set group =>   2
Atom   4C    basis set group =>   2
Atom   5O    basis set group =>   3
Atom   6O    basis set group =>   3
Atom   7O    basis set group =>   3
Atom   8O    basis set group =>   3
Atom   9C    basis set group =>   2
Atom  10O    basis set group =>   3
Atom  11F    basis set group =>   4
---------------------------------
AUXILIARY/J BASIS SET INFORMATION
---------------------------------
There are 4 groups of distinct atoms

 Group   1 Type Mo  : 11s5p5d3f3g contracted to 8s5p5d2f3g pattern {41111111/11111/11111/21/111}
 Group   2 Type C   : 12s5p4d2f1g contracted to 6s4p3d1f1g pattern {711111/2111/211/2/1}
 Group   3 Type O   : 12s5p4d2f1g contracted to 6s4p3d1f1g pattern {711111/2111/211/2/1}
 Group   4 Type F   : 12s5p4d2f1g contracted to 6s4p3d1f1g pattern {711111/2111/211/2/1}

Atom   0Mo   basis set group =>   1
Atom   1C    basis set group =>   2
Atom   2C    basis set group =>   2
Atom   3C    basis set group =>   2
Atom   4C    basis set group =>   2
Atom   5O    basis set group =>   3
Atom   6O    basis set group =>   3
Atom   7O    basis set group =>   3
Atom   8O    basis set group =>   3
Atom   9C    basis set group =>   2
Atom  10O    basis set group =>   3
Atom  11F    basis set group =>   4
-------------------------
ECP PARAMETER INFORMATION
-------------------------

 Group 1, Type Mo ECP Def2-ECP (replacing 28 core electrons, lmax=3)

Atom   0Mo   ECP group =>   1



           ************************************************************
           *        Program running with 8 parallel MPI-processes     *
           *              working on a common directory               *
           ************************************************************
------------------------------------------------------------------------------
                           ORCA GTO INTEGRAL CALCULATION
                           -- RI-GTO INTEGRALS CHOSEN --
------------------------------------------------------------------------------
------------------------------------------------------------------------------
                   ___                                                        
                  /   \      - P O W E R E D   B Y -                         
                 /     \                                                     
                 |  |  |   _    _      __       _____    __    __             
                 |  |  |  | |  | |    /  \     |  _  \  |  |  /  |          
                  \  \/   | |  | |   /    \    | | | |  |  | /  /          
                 / \  \   | |__| |  /  /\  \   | |_| |  |  |/  /          
                |  |  |   |  __  | /  /__\  \  |    /   |      \           
                |  |  |   | |  | | |   __   |  |    \   |  |\   \          
                \     /   | |  | | |  |  |  |  | |\  \  |  | \   \       
                 \___/    |_|  |_| |__|  |__|  |_| \__\ |__|  \__/        
                                                                              
                      - O R C A' S   B I G   F R I E N D -                    
                                      &                                       
                       - I N T E G R A L  F E E D E R -                       
                                                                              
 v1 FN, 2020, v2 2021                                                         
------------------------------------------------------------------------------


Reading SHARK input file MoCO5F-.SHARKINP.tmp ... ok
----------------------
SHARK INTEGRAL PACKAGE
----------------------

Number of atoms                             ...     12
Number of basis functions                   ...    272
Number of shells                            ...    106
Maximum angular momentum                    ...      3
Integral batch strategy                     ... SHARK/LIBINT Hybrid
RI-J (if used) integral strategy            ... SPLIT-RIJ (Revised 2003 algorithm where possible)
Printlevel                                  ...      1
Contraction scheme used                     ... SEGMENTED contraction
Coulomb Range Separation                    ... NOT USED
Exchange Range Separation                   ... NOT USED
Finite Nucleus Model                        ... NOT USED
Auxiliary Coulomb fitting basis             ... AVAILABLE
   # of basis functions in Aux-J            ...    628
   # of shells in Aux-J                     ...    188
   Maximum angular momentum in Aux-J        ...      4
Auxiliary J/K fitting basis                 ... NOT available
Auxiliary Correlation fitting basis         ... NOT available
Auxiliary 'external' fitting basis          ... NOT available
Integral threshold                          ...     2.500000e-11
Primitive cut-off                           ...     2.500000e-12
Primitive pair pre-selection threshold      ...     2.500000e-12

Calculating pre-screening integrals         ... done (  0.0 sec) Dimension = 106
Organizing shell pair data                  ... done (  0.1 sec)
Shell pair information
Total number of shell pairs                 ...      5671
Shell pairs after pre-screening             ...      5199
Total number of primitive shell pairs       ...     16448
Primitive shell pairs kept                  ...     11578
          la=0 lb=0:   1080 shell pairs
          la=1 lb=0:   1440 shell pairs
          la=1 lb=1:    505 shell pairs
          la=2 lb=0:   1057 shell pairs
          la=2 lb=1:    730 shell pairs
          la=2 lb=2:    281 shell pairs
          la=3 lb=0:     49 shell pairs
          la=3 lb=1:     32 shell pairs
          la=3 lb=2:     24 shell pairs
          la=3 lb=3:      1 shell pairs

Calculating one electron integrals          ... done (  0.0 sec)
Calculating ECP integrals                   ... done (  0.4 sec)
Calculating RI/J V-Matrix + Cholesky decomp.... done (  0.1 sec)
Calculating Nuclear repulsion               ... done (  0.0 sec) ENN=    683.854465814483 Eh

SHARK setup successfully completed in   0.7 seconds

Maximum memory used throughout the entire GTOINT-calculation: 17.3 MB


           ************************************************************
           *        Program running with 8 parallel MPI-processes     *
           *              working on a common directory               *
           ************************************************************
-------------------------------------------------------------------------------
                                 ORCA SCF
-------------------------------------------------------------------------------

------------
SCF SETTINGS
------------
Hamiltonian:
 Density Functional     Method          .... DFT(GTOs)
 Exchange Functional    Exchange        .... B88
   X-Alpha parameter    XAlpha          ....  0.666667
   Becke's b parameter  XBeta           ....  0.004200
 Correlation Functional Correlation     .... LYP
 LDA part of GGA corr.  LDAOpt          .... VWN-5
 Gradients option       PostSCFGGA      .... off
 Hybrid DFT is turned on
   Fraction HF Exchange ScalHFX         ....  0.200000
   Scaling of DF-GGA-X  ScalDFX         ....  0.720000
   Scaling of DF-GGA-C  ScalDFC         ....  0.810000
   Scaling of DF-LDA-C  ScalLDAC        ....  1.000000
   Perturbative correction              ....  0.000000
   Density functional embedding theory  .... OFF
   NL short-range parameter             ....  4.800000
 RI-approximation to the Coulomb term is turned on
   Number of AuxJ basis functions       .... 628
   RIJ-COSX (HFX calculated with COS-X)).... on


General Settings:
 Integral files         IntName         .... MoCO5F-
 Hartree-Fock type      HFTyp           .... RHF
 Total Charge           Charge          ....   -1
 Multiplicity           Mult            ....    1
 Number of Electrons    NEL             ....   94
 Basis Dimension        Dim             ....  272
 Nuclear Repulsion      ENuc            ....    683.8544658145 Eh

Convergence Acceleration:
 DIIS                   CNVDIIS         .... on
   Start iteration      DIISMaxIt       ....    12
   Startup error        DIISStart       ....  0.200000
   # of expansion vecs  DIISMaxEq       ....     5
   Bias factor          DIISBfac        ....   1.050
   Max. coefficient     DIISMaxC        ....  10.000
 Trust-Rad. Augm. Hess. CNVTRAH         .... auto
   Auto Start mean grad. ratio tolernc. ....  1.125000
   Auto Start start iteration           ....    20
   Auto Start num. interpolation iter.  ....    10
   Max. Number of Micro iterations      ....    16
   Max. Number of Macro iterations      .... Maxiter - #DIIS iter
   Number of Davidson start vectors     ....     2
   Converg. threshold I  (grad. norm)   ....   1.000e-05
   Converg. threshold II (energy diff.) ....   1.000e-08
   Grad. Scal. Fac. for Micro threshold ....   0.100
   Minimum threshold for Micro iter.    ....   0.010
   NR start threshold (gradient norm)   ....   0.001
   Initial trust radius                 ....   0.400
   Minimum AH scaling param. (alpha)    ....   1.000
   Maximum AH scaling param. (alpha)    .... 1000.000
   Orbital update algorithm             .... Taylor
   White noise on init. David. guess    .... on
   Maximum white noise                  ....   0.010
   Quad. conv. algorithm                .... NR
 SOSCF                  CNVSOSCF        .... off
 Level Shifting         CNVShift        .... on
   Level shift para.    LevelShift      ....    0.2500
   Turn off err/grad.   ShiftErr        ....    0.0010
 Zerner damping         CNVZerner       .... off
 Static damping         CNVDamp         .... on
   Fraction old density DampFac         ....    0.7000
   Max. Damping (<1)    DampMax         ....    0.9800
   Min. Damping (>=0)   DampMin         ....    0.0000
   Turn off err/grad.   DampErr         ....    0.1000
 Fernandez-Rico         CNVRico         .... off

SCF Procedure:
 Maximum # iterations   MaxIter         ....   300
 SCF integral mode      SCFMode         .... Direct
   Integral package                     .... SHARK and LIBINT hybrid scheme
 Reset frequency        DirectResetFreq ....    20
 Integral Threshold     Thresh          ....  2.500e-11 Eh
 Primitive CutOff       TCut            ....  2.500e-12 Eh

Convergence Tolerance:
 Convergence Check Mode ConvCheckMode   .... Total+1el-Energy
 Convergence forced     ConvForced      .... 0
 Energy Change          TolE            ....  1.000e-08 Eh
 1-El. energy change                    ....  1.000e-05 Eh
 DIIS Error             TolErr          ....  5.000e-07


Diagonalization of the overlap matrix:
Smallest eigenvalue                        ... 2.869e-05
Time for diagonalization                   ...    0.014 sec
Threshold for overlap eigenvalues          ... 1.000e-08
Number of eigenvalues below threshold      ... 0
Time for construction of square roots      ...    0.035 sec
Total time needed                          ...    0.050 sec

Time for model grid setup =    0.135 sec

------------------------------
INITIAL GUESS: MODEL POTENTIAL
------------------------------
Loading Hartree-Fock densities                     ... done
  calling C:\orca_5_0_4\orca MoCO5F-_atom42.inp > MoCO5F-_atom42.out in order to generate an atomic fitting density for atom 0 (Mo with ECP) on-the-fly... 
    atom 0 (Mo), assumed electronic state with S=5: 1s2 2s2 2p6 3s2 3p6 4s2 3d10 4p6 5s2 4d4           ... done
Calculating cut-offs                               ... done
Initializing the effective Hamiltonian             ... done
Setting up the integral package (SHARK)            ... done
Starting the Coulomb interaction                   ... done (   0.1 sec)
Reading the grid                                   ... done
Mapping shells                                     ... done
Starting the XC term evaluation                    ... done (   0.1 sec)
  promolecular density results
     # of electrons  =    121.003319707
     EX              =   -196.315952843
     EC              =     -4.914887198
     EX+EC           =   -201.230840042
Transforming the Hamiltonian                       ... done (   0.0 sec)
Diagonalizing the Hamiltonian                      ... done (   0.0 sec)
Back transforming the eigenvectors                 ... done (   0.0 sec)
Now organizing SCF variables                       ... done
                      ------------------
                      INITIAL GUESS DONE (   1.4 sec)
                      ------------------
-------------------
DFT GRID GENERATION
-------------------

General Integration Accuracy     IntAcc      ... 4.388
Radial Grid Type                 RadialGrid  ... OptM3 with GC (2021)
Angular Grid (max. ang.)         AngularGrid ... 4 (Lebedev-302)
Angular grid pruning method      GridPruning ... 4 (adaptive)
Weight generation scheme         WeightScheme... Becke
Basis function cutoff            BFCut       ... 1.0000e-11
Integration weight cutoff        WCut        ... 1.0000e-14
Angular grids for H and He will be reduced by one unit
Partially contracted basis set               ... off
Rotationally invariant grid construction     ... off

Total number of grid points                  ...    79811
Total number of batches                      ...     1251
Average number of points per batch           ...       63
Average number of grid points per atom       ...     6651
Time for grid setup =    0.575 sec

--------------------
COSX GRID GENERATION
--------------------

GRIDX 1
-------
General Integration Accuracy     IntAcc      ... 3.816
Radial Grid Type                 RadialGrid  ... OptM3 with GC (2021)
Angular Grid (max. ang.)         AngularGrid ... 1 (Lebedev-50)
Angular grid pruning method      GridPruning ... 4 (adaptive)
Weight generation scheme         WeightScheme... Becke
Basis function cutoff            BFCut       ... 1.0000e-11
Integration weight cutoff        WCut        ... 1.0000e-14
Angular grids for H and He will be reduced by one unit
Partially contracted basis set               ... on
Rotationally invariant grid construction     ... off

Total number of grid points                  ...     9776
Total number of batches                      ...      161
Average number of points per batch           ...       60
Average number of grid points per atom       ...      815
UseSFitting                                  ... on

GRIDX 2
-------
General Integration Accuracy     IntAcc      ... 4.020
Radial Grid Type                 RadialGrid  ... OptM3 with GC (2021)
Angular Grid (max. ang.)         AngularGrid ... 2 (Lebedev-110)
Angular grid pruning method      GridPruning ... 4 (adaptive)
Weight generation scheme         WeightScheme... Becke
Basis function cutoff            BFCut       ... 1.0000e-11
Integration weight cutoff        WCut        ... 1.0000e-14
Angular grids for H and He will be reduced by one unit
Partially contracted basis set               ... on
Rotationally invariant grid construction     ... off

Total number of grid points                  ...    25350
Total number of batches                      ...      403
Average number of points per batch           ...       62
Average number of grid points per atom       ...     2113
UseSFitting                                  ... on

GRIDX 3
-------
General Integration Accuracy     IntAcc      ... 4.338
Radial Grid Type                 RadialGrid  ... OptM3 with GC (2021)
Angular Grid (max. ang.)         AngularGrid ... 3 (Lebedev-194)
Angular grid pruning method      GridPruning ... 4 (adaptive)
Weight generation scheme         WeightScheme... Becke
Basis function cutoff            BFCut       ... 1.0000e-11
Integration weight cutoff        WCut        ... 1.0000e-14
Angular grids for H and He will be reduced by one unit
Partially contracted basis set               ... on
Rotationally invariant grid construction     ... off

Total number of grid points                  ...    54575
Total number of batches                      ...      858
Average number of points per batch           ...       63
Average number of grid points per atom       ...     4548
UseSFitting                                  ... on

Time for X-Grid setup             =    0.716 sec

--------------
SCF ITERATIONS
--------------
ITER       Energy         Delta-E        Max-DP      RMS-DP      [F,P]     Damp
               ***  Starting incremental Fock matrix formation  ***
  0   -731.0113098803   0.00000000000030.50125828  0.20902003  1.0146141 0.7000
  1   -732.6473369647  -1.636027084377 6.21454795  0.04479837  0.3270157 0.7000
                               ***Turning on DIIS***
  2   -733.0194049986  -0.372068033852 7.03792476  0.04858696  0.1435152 0.7000
  3   -733.3151006727  -0.29569567417817.27831451  0.11865979  0.0995540 0.0000
  4   -733.9256604499  -0.610559777202 0.06296362  0.00097847  0.1600935 0.7000
  5   -733.9712696017  -0.045609151735 0.06245355  0.00094319  0.1379547 0.7000
  6   -734.0129414866  -0.041671884946 0.05291843  0.00079908  0.1123861 0.7000
  7   -734.0442232890  -0.031281802410 0.14579368  0.00224024  0.0874524 0.0000
  8   -734.0979382469  -0.053714957922 0.02379869  0.00047354  0.0103061 0.0000
  9   -734.0989639864  -0.001025739427 0.00942977  0.00018814  0.0066894 0.0000
 10   -734.0992419964  -0.000278010073 0.00476954  0.00008579  0.0010232 0.0000
 11   -734.0992552596  -0.000013263155 0.00454167  0.00009134  0.0009009 0.0000
               *** Restarting incremental Fock matrix formation ***
                                   *** Resetting DIIS ***
 12   -734.0993653208  -0.000110061210 0.00568907  0.00010240  0.0010521 0.0000
 13   -734.0993612913   0.000004029513 0.00217747  0.00003430  0.0014007 0.0000
 14   -734.0993677342  -0.000006442930 0.00192513  0.00002603  0.0005867 0.0000
 15   -734.0993688880  -0.000001153791 0.00013474  0.00000298  0.0000709 0.0000
 16   -734.0993689113  -0.000000023263 0.00008094  0.00000147  0.0000853 0.0000
 17   -734.0993689448  -0.000000033489 0.00006306  0.00000118  0.0000199 0.0000
 18   -734.0993689312   0.000000013607 0.00003376  0.00000093  0.0000156 0.0000
 19   -734.0993689281   0.000000003067 0.00003116  0.00000053  0.0000023 0.0000
 20   -734.0993689172   0.000000010940 0.00006078  0.00000119  0.0000021 0.0000
                            ***DIIS convergence achieved***

               *****************************************************
               *                     SUCCESS                       *
               *           SCF CONVERGED AFTER  21 CYCLES          *
               *****************************************************

Old exchange energy                            =    -16.778968582 Eh
New exchange energy                            =    -16.778901501 Eh
Exchange energy change after final integration =      0.000067081 Eh
Total energy after final integration           =   -734.099301830 Eh
Final COS-X integration done in                =     3.462 sec

----------------
TOTAL SCF ENERGY
----------------

Total Energy       :         -734.09930183 Eh          -19975.85756 eV

Components:
Nuclear Repulsion  :          683.85446581 Eh           18608.62606 eV
Electronic Energy  :        -1417.95376764 Eh          -38584.48361 eV
One Electron Energy:        -2403.91578370 Eh          -65413.87405 eV
Two Electron Energy:          985.96201606 Eh           26829.39044 eV
Max COSX asymmetry :            0.00006434 Eh               0.00175 eV

Virial components:
Potential Energy   :        -1418.54263574 Eh          -38600.50753 eV
Kinetic Energy     :          684.44333391 Eh           18624.64997 eV
Virial Ratio       :            2.07254942


DFT components:
N(Alpha)           :       47.000313977955 electrons
N(Beta)            :       47.000313977955 electrons
N(Total)           :       94.000627955911 electrons
E(X)               :      -67.158473263337 Eh       
E(C)               :       -3.903374155599 Eh       
E(XC)              :      -71.061847418936 Eh       
DFET-embed. en.    :        0.000000000000 Eh       

---------------
SCF CONVERGENCE
---------------

  Last Energy change         ...    6.2172e-09  Tolerance :   1.0000e-08
  Last MAX-Density change    ...    0.0000e+00  Tolerance :   1.0000e-07
  Last RMS-Density change    ...    0.0000e+00  Tolerance :   5.0000e-09
  Last DIIS Error            ...    6.4862e-07  Tolerance :   5.0000e-07

             **** THE GBW FILE WAS UPDATED (MoCO5F-.gbw) ****
             **** DENSITY MoCO5F-.scfp WAS UPDATED ****
             **** ENERGY FILE WAS UPDATED (MoCO5F-.en.tmp) ****
             **** THE GBW FILE WAS UPDATED (MoCO5F-.gbw) ****
             **** DENSITY MoCO5F-.scfp WAS UPDATED ****
----------------
ORBITAL ENERGIES
----------------

  NO   OCC          E(Eh)            E(eV) 
   0   2.0000     -24.424385      -664.6213 
   1   2.0000     -19.086542      -519.3712 
   2   2.0000     -19.086493      -519.3699 
   3   2.0000     -19.086479      -519.3695 
   4   2.0000     -19.086468      -519.3692 
   5   2.0000     -19.055531      -518.5274 
   6   2.0000     -10.154306      -276.3127 
   7   2.0000     -10.154248      -276.3111 
   8   2.0000     -10.154246      -276.3111 
   9   2.0000     -10.154171      -276.3090 
  10   2.0000     -10.129703      -275.6432 
  11   2.0000      -2.403152       -65.3931 
  12   2.0000      -1.400940       -38.1215 
  13   2.0000      -1.400933       -38.1213 
  14   2.0000      -1.397418       -38.0257 
  15   2.0000      -1.003149       -27.2971 
  16   2.0000      -1.002900       -27.2903 
  17   2.0000      -1.002895       -27.2902 
  18   2.0000      -1.002777       -27.2869 
  19   2.0000      -0.976618       -26.5751 
  20   2.0000      -0.871484       -23.7143 
  21   2.0000      -0.433726       -11.8023 
  22   2.0000      -0.425027       -11.5656 
  23   2.0000      -0.423778       -11.5316 
  24   2.0000      -0.423774       -11.5315 
  25   2.0000      -0.401796       -10.9334 
  26   2.0000      -0.340205        -9.2575 
  27   2.0000      -0.334722        -9.1083 
  28   2.0000      -0.333943        -9.0871 
  29   2.0000      -0.333938        -9.0869 
  30   2.0000      -0.333065        -9.0632 
  31   2.0000      -0.333057        -9.0629 
  32   2.0000      -0.330334        -8.9888 
  33   2.0000      -0.329689        -8.9713 
  34   2.0000      -0.327146        -8.9021 
  35   2.0000      -0.308335        -8.3902 
  36   2.0000      -0.308334        -8.3902 
  37   2.0000      -0.301236        -8.1971 
  38   2.0000      -0.273104        -7.4315 
  39   2.0000      -0.259243        -7.0543 
  40   2.0000      -0.259219        -7.0537 
  41   2.0000      -0.193455        -5.2642 
  42   2.0000      -0.180986        -4.9249 
  43   2.0000      -0.180977        -4.9246 
  44   2.0000      -0.074189        -2.0188 
  45   2.0000      -0.035202        -0.9579 
  46   2.0000      -0.035187        -0.9575 
  47   0.0000       0.082798         2.2531 
  48   0.0000       0.098758         2.6873 
  49   0.0000       0.098787         2.6881 
  50   0.0000       0.114892         3.1264 
  51   0.0000       0.125213         3.4072 
  52   0.0000       0.145852         3.9688 
  53   0.0000       0.145863         3.9691 
  54   0.0000       0.150652         4.0994 
  55   0.0000       0.152254         4.1430 
  56   0.0000       0.152257         4.1431 
  57   0.0000       0.155028         4.2185 
  58   0.0000       0.159418         4.3380 
  59   0.0000       0.171463         4.6657 
  60   0.0000       0.174500         4.7484 
  61   0.0000       0.174502         4.7484 
  62   0.0000       0.182696         4.9714 
  63   0.0000       0.199174         5.4198 
  64   0.0000       0.199196         5.4204 
  65   0.0000       0.199979         5.4417 
  66   0.0000       0.206860         5.6290 
  67   0.0000       0.206866         5.6291 
  68   0.0000       0.208474         5.6729 
  69   0.0000       0.213402         5.8070 
  70   0.0000       0.231511         6.2997 
  71   0.0000       0.234180         6.3724 
  72   0.0000       0.243652         6.6301 
  73   0.0000       0.243688         6.6311 
  74   0.0000       0.255390         6.9495 
  75   0.0000       0.266922         7.2633 
  76   0.0000       0.282371         7.6837 
  77   0.0000       0.282396         7.6844 
  78   0.0000       0.304098         8.2749 
  79   0.0000       0.306111         8.3297 
  80   0.0000       0.314004         8.5445 
  81   0.0000       0.323884         8.8133 
  82   0.0000       0.335964         9.1420 
  83   0.0000       0.335984         9.1426 
  84   0.0000       0.375597        10.2205 
  85   0.0000       0.380930        10.3656 
  86   0.0000       0.380956        10.3664 
  87   0.0000       0.397169        10.8075 
  88   0.0000       0.400188        10.8897 
  89   0.0000       0.413463        11.2509 
  90   0.0000       0.421495        11.4695 
  91   0.0000       0.421557        11.4711 
  92   0.0000       0.424540        11.5523 
  93   0.0000       0.424550        11.5526 
  94   0.0000       0.441453        12.0125 
  95   0.0000       0.453739        12.3469 
  96   0.0000       0.461612        12.5611 
  97   0.0000       0.461645        12.5620 
  98   0.0000       0.468253        12.7418 
  99   0.0000       0.488687        13.2979 
 100   0.0000       0.489890        13.3306 
 101   0.0000       0.506283        13.7767 
 102   0.0000       0.510178        13.8827 
 103   0.0000       0.510211        13.8836 
 104   0.0000       0.540430        14.7058 
 105   0.0000       0.556913        15.1544 
 106   0.0000       0.573392        15.6028 
 107   0.0000       0.573433        15.6039 
 108   0.0000       0.590124        16.0581 
 109   0.0000       0.590132        16.0583 
 110   0.0000       0.590588        16.0707 
 111   0.0000       0.593184        16.1414 
 112   0.0000       0.593664        16.1544 
 113   0.0000       0.595204        16.1963 
 114   0.0000       0.595211        16.1965 
 115   0.0000       0.609095        16.5743 
 116   0.0000       0.609757        16.5923 
 117   0.0000       0.610241        16.6055 
 118   0.0000       0.610249        16.6057 
 119   0.0000       0.636316        17.3150 
 120   0.0000       0.640970        17.4417 
 121   0.0000       0.668550        18.1922 
 122   0.0000       0.671751        18.2793 
 123   0.0000       0.671789        18.2803 
 124   0.0000       0.671917        18.2838 
 125   0.0000       0.675717        18.3872 
 126   0.0000       0.695116        18.9151 
 127   0.0000       0.695139        18.9157 
 128   0.0000       0.698845        19.0165 
 129   0.0000       0.706114        19.2143 
 130   0.0000       0.706138        19.2150 
 131   0.0000       0.710009        19.3203 
 132   0.0000       0.716429        19.4950 
 133   0.0000       0.738034        20.0829 
 134   0.0000       0.738099        20.0847 
 135   0.0000       0.743097        20.2207 
 136   0.0000       0.752643        20.4805 
 137   0.0000       0.752692        20.4818 
 138   0.0000       0.759198        20.6588 
 139   0.0000       0.764351        20.7991 
 140   0.0000       0.774546        21.0765 
 141   0.0000       0.775124        21.0922 
 142   0.0000       0.775142        21.0927 
 143   0.0000       0.777648        21.1609 
 144   0.0000       0.778955        21.1964 
 145   0.0000       0.808281        21.9944 
 146   0.0000       0.817115        22.2348 
 147   0.0000       0.817140        22.2355 
 148   0.0000       0.873739        23.7756 
 149   0.0000       0.906479        24.6665 
 150   0.0000       0.906506        24.6673 
 151   0.0000       0.908802        24.7297 
 152   0.0000       0.910643        24.7798 
 153   0.0000       0.939050        25.5529 
 154   0.0000       0.992173        26.9984 
 155   0.0000       0.992220        26.9997 
 156   0.0000       0.993185        27.0259 
 157   0.0000       1.001635        27.2559 
 158   0.0000       1.013203        27.5707 
 159   0.0000       1.044100        28.4114 
 160   0.0000       1.044107        28.4116 
 161   0.0000       1.051296        28.6072 
 162   0.0000       1.056970        28.7616 
 163   0.0000       1.057042        28.7636 
 164   0.0000       1.068909        29.0865 
 165   0.0000       1.082309        29.4511 
 166   0.0000       1.088810        29.6280 
 167   0.0000       1.101180        29.9646 
 168   0.0000       1.101234        29.9661 
 169   0.0000       1.106800        30.1176 
 170   0.0000       1.118893        30.4466 
 171   0.0000       1.154631        31.4191 
 172   0.0000       1.154656        31.4198 
 173   0.0000       1.163515        31.6609 
 174   0.0000       1.210040        32.9269 
 175   0.0000       1.222109        33.2553 
 176   0.0000       1.222142        33.2562 
 177   0.0000       1.252045        34.0699 
 178   0.0000       1.274885        34.6914 
 179   0.0000       1.303356        35.4661 
 180   0.0000       1.380585        37.5676 
 181   0.0000       1.380704        37.5709 
 182   0.0000       1.400919        38.1210 
 183   0.0000       1.506147        40.9843 
 184   0.0000       1.578670        42.9578 
 185   0.0000       1.591214        43.2991 
 186   0.0000       1.603079        43.6220 
 187   0.0000       1.603136        43.6236 
 188   0.0000       1.610815        43.8325 
 189   0.0000       1.639522        44.6137 
 190   0.0000       1.644080        44.7377 
 191   0.0000       1.644085        44.7378 
 192   0.0000       1.651438        44.9379 
 193   0.0000       1.656080        45.0642 
 194   0.0000       1.657764        45.1100 
 195   0.0000       1.657874        45.1130 
 196   0.0000       1.673502        45.5383 
 197   0.0000       1.680746        45.7354 
 198   0.0000       1.680759        45.7358 
 199   0.0000       1.688134        45.9365 
 200   0.0000       1.688189        45.9380 
 201   0.0000       1.692524        46.0559 
 202   0.0000       1.699256        46.2391 
 203   0.0000       1.719404        46.7874 
 204   0.0000       1.778420        48.3933 
 205   0.0000       1.778485        48.3950 
 206   0.0000       1.882737        51.2319 
 207   0.0000       1.882760        51.2325 
 208   0.0000       1.905962        51.8639 
 209   0.0000       1.926964        52.4353 
 210   0.0000       1.934058        52.6284 
 211   0.0000       1.934083        52.6291 
 212   0.0000       1.937480        52.7215 
 213   0.0000       1.956105        53.2283 
 214   0.0000       1.956158        53.2298 
 215   0.0000       1.962459        53.4012 
 216   0.0000       2.022115        55.0245 
 217   0.0000       2.041369        55.5485 
 218   0.0000       2.047188        55.7068 
 219   0.0000       2.071933        56.3802 
 220   0.0000       2.078029        56.5461 
 221   0.0000       2.078117        56.5484 
 222   0.0000       2.092372        56.9363 
 223   0.0000       2.097836        57.0850 
 224   0.0000       2.097879        57.0862 
 225   0.0000       2.122197        57.7479 
 226   0.0000       2.122335        57.7517 
 227   0.0000       2.133086        58.0442 
 228   0.0000       2.142875        58.3106 
 229   0.0000       2.155979        58.6672 
 230   0.0000       2.159460        58.7619 
 231   0.0000       2.159683        58.7680 
 232   0.0000       2.199266        59.8451 
 233   0.0000       2.245484        61.1027 
 234   0.0000       2.556704        69.5715 
 235   0.0000       2.629891        71.5630 
 236   0.0000       2.788534        75.8799 
 237   0.0000       2.894456        78.7622 
 238   0.0000       2.931655        79.7744 
 239   0.0000       2.934290        79.8461 
 240   0.0000       2.934319        79.8469 
 241   0.0000       2.956278        80.4444 
 242   0.0000       2.956306        80.4452 
 243   0.0000       2.957763        80.4848 
 244   0.0000       2.957833        80.4867 
 245   0.0000       2.967081        80.7384 
 246   0.0000       2.967857        80.7595 
 247   0.0000       2.970132        80.8214 
 248   0.0000       2.983740        81.1917 
 249   0.0000       2.996289        81.5332 
 250   0.0000       3.025188        82.3195 
 251   0.0000       3.323752        90.4439 
 252   0.0000       3.343691        90.9865 
 253   0.0000       3.343695        90.9866 
 254   0.0000       3.345578        91.0378 
 255   0.0000       3.364948        91.5649 
 256   0.0000       3.364973        91.5656 
 257   0.0000       3.385831        92.1332 
 258   0.0000       3.396600        92.4262 
 259   0.0000       3.396626        92.4269 
 260   0.0000       3.397883        92.4611 
 261   0.0000       3.594724        97.8174 
 262   0.0000       3.660345        99.6031 
 263   0.0000       3.680063       100.1396 
 264   0.0000       3.680160       100.1423 
 265   0.0000       3.733499       101.5937 
 266   0.0000       3.939119       107.1889 
 267   0.0000       3.946841       107.3990 
 268   0.0000       3.969764       108.0228 
 269   0.0000       3.969768       108.0229 
 270   0.0000       3.989978       108.5728 
 271   0.0000      39.791835      1082.7909 

                    ********************************
                    * MULLIKEN POPULATION ANALYSIS *
                    ********************************

-----------------------
MULLIKEN ATOMIC CHARGES
-----------------------
   0 Mo:   -1.031498
   1 C :    0.552352
   2 C :    0.552515
   3 C :    0.552575
   4 C :    0.552448
   5 O :   -0.364846
   6 O :   -0.364814
   7 O :   -0.364773
   8 O :   -0.364728
   9 C :    0.484960
  10 O :   -0.417917
  11 F :   -0.786272
Sum of atomic charges:   -1.0000000

--------------------------------
MULLIKEN REDUCED ORBITAL CHARGES
--------------------------------
  0 Mos       :     2.853094  s :     2.853094
      pz      :     2.160135  p :     6.803555
      px      :     2.321866
      py      :     2.321554
      dz2     :     0.646855  d :     5.341572
      dxz     :     1.291204
      dyz     :     1.285937
      dx2y2   :     0.805858
      dxy     :     1.311717
      f0      :     0.009408  f :     0.033277
      f+1     :     0.007024
      f-1     :     0.007023
      f+2     :     0.000551
      f-2     :     0.000029
      f+3     :     0.004637
      f-3     :     0.004606
  1 C s       :     3.208821  s :     3.208821
      pz      :     0.603203  p :     2.133218
      px      :     0.576494
      py      :     0.953522
      dz2     :     0.007615  d :     0.105609
      dxz     :     0.002727
      dyz     :     0.034939
      dx2y2   :     0.033127
      dxy     :     0.027200
  2 C s       :     3.208819  s :     3.208819
      pz      :     0.605580  p :     2.133001
      px      :     0.950895
      py      :     0.576525
      dz2     :     0.007340  d :     0.105666
      dxz     :     0.034677
      dyz     :     0.002807
      dx2y2   :     0.033728
      dxy     :     0.027115
  3 C s       :     3.208705  s :     3.208705
      pz      :     0.603634  p :     2.133063
      px      :     0.952913
      py      :     0.576516
      dz2     :     0.007449  d :     0.105657
      dxz     :     0.034875
      dyz     :     0.002729
      dx2y2   :     0.033378
      dxy     :     0.027226
  4 C s       :     3.208823  s :     3.208823
      pz      :     0.607626  p :     2.133083
      px      :     0.576427
      py      :     0.949030
      dz2     :     0.007371  d :     0.105645
      dxz     :     0.002934
      dyz     :     0.034449
      dx2y2   :     0.033901
      dxy     :     0.026990
  5 O s       :     3.880492  s :     3.880492
      pz      :     1.556244  p :     4.418329
      px      :     1.545036
      py      :     1.317050
      dz2     :     0.004378  d :     0.066025
      dxz     :     0.000143
      dyz     :     0.023624
      dx2y2   :     0.014601
      dxy     :     0.023280
  6 O s       :     3.880419  s :     3.880419
      pz      :     1.557014  p :     4.418374
      px      :     1.316295
      py      :     1.545065
      dz2     :     0.004265  d :     0.066021
      dxz     :     0.023752
      dyz     :     0.000095
      dx2y2   :     0.014585
      dxy     :     0.023325
  7 O s       :     3.880300  s :     3.880300
      pz      :     1.557107  p :     4.418463
      px      :     1.545052
      py      :     1.316304
      dz2     :     0.004312  d :     0.066011
      dxz     :     0.000151
      dyz     :     0.023790
      dx2y2   :     0.014495
      dxy     :     0.023263
  8 O s       :     3.880329  s :     3.880329
      pz      :     1.557381  p :     4.418379
      px      :     1.315929
      py      :     1.545069
      dz2     :     0.004236  d :     0.066019
      dxz     :     0.023826
      dyz     :     0.000098
      dx2y2   :     0.014539
      dxy     :     0.023320
  9 C s       :     3.184593  s :     3.184593
      pz      :     0.968203  p :     2.209094
      px      :     0.620056
      py      :     0.620835
      dz2     :     0.042263  d :     0.121354
      dxz     :     0.040935
      dyz     :     0.040891
      dx2y2   :    -0.002492
      dxy     :    -0.000243
 10 O s       :     3.889904  s :     3.889904
      pz      :     1.319467  p :     4.460251
      px      :     1.570680
      py      :     1.570104
      dz2     :     0.018238  d :     0.067762
      dxz     :     0.024546
      dyz     :     0.024510
      dx2y2   :     0.000136
      dxy     :     0.000331
 11 F s       :     4.051814  s :     4.051814
      pz      :     1.836340  p :     5.743219
      px      :     1.953569
      py      :     1.953310
      dz2     :     0.001030  d :    -0.008761
      dxz     :    -0.003134
      dyz     :    -0.003114
      dx2y2   :    -0.001677
      dxy     :    -0.001865


                     *******************************
                     * LOEWDIN POPULATION ANALYSIS *
                     *******************************

----------------------
LOEWDIN ATOMIC CHARGES
----------------------
   0 Mo:    0.109937
   1 C :    0.095519
   2 C :    0.095537
   3 C :    0.095532
   4 C :    0.095525
   5 O :   -0.156325
   6 O :   -0.156370
   7 O :   -0.156432
   8 O :   -0.156387
   9 C :    0.002508
  10 O :   -0.206495
  11 F :   -0.662550

-------------------------------
LOEWDIN REDUCED ORBITAL CHARGES
-------------------------------
  0 Mos       :     1.980154  s :     1.980154
      pz      :     2.209904  p :     6.865057
      px      :     2.327703
      py      :     2.327450
      dz2     :     0.755648  d :     4.977924
      dxz     :     1.146630
      dyz     :     1.143368
      dx2y2   :     0.792858
      dxy     :     1.139420
      f0      :     0.019665  f :     0.066928
      f+1     :     0.013433
      f-1     :     0.013448
      f+2     :     0.000940
      f-2     :     0.000051
      f+3     :     0.009728
      f-3     :     0.009664
  1 C s       :     3.005462  s :     3.005462
      pz      :     0.598281  p :     2.263182
      px      :     0.576544
      py      :     1.088357
      dz2     :     0.074247  d :     0.635836
      dxz     :     0.011832
      dyz     :     0.184284
      dx2y2   :     0.171442
      dxy     :     0.194031
  2 C s       :     3.005457  s :     3.005457
      pz      :     0.598983  p :     2.263139
      px      :     1.087567
      py      :     0.576589
      dz2     :     0.071340  d :     0.635867
      dxz     :     0.186368
      dyz     :     0.011235
      dx2y2   :     0.172230
      dxy     :     0.194695
  3 C s       :     3.005453  s :     3.005453
      pz      :     0.597885  p :     2.263155
      px      :     1.088690
      py      :     0.576580
      dz2     :     0.072844  d :     0.635860
      dxz     :     0.185130
      dyz     :     0.011443
      dx2y2   :     0.171924
      dxy     :     0.194519
  4 C s       :     3.005470  s :     3.005470
      pz      :     0.600778  p :     2.263137
      px      :     0.576517
      py      :     1.085842
      dz2     :     0.070857  d :     0.635867
      dxz     :     0.011473
      dyz     :     0.186969
      dx2y2   :     0.172126
      dxy     :     0.194442
  5 O s       :     3.487904  s :     3.487904
      pz      :     1.442618  p :     4.461097
      px      :     1.432624
      py      :     1.585855
      dz2     :     0.030085  d :     0.207323
      dxz     :     0.000158
      dyz     :     0.046431
      dx2y2   :     0.089355
      dxy     :     0.041294
  6 O s       :     3.487923  s :     3.487923
      pz      :     1.442390  p :     4.461128
      px      :     1.586079
      py      :     1.432660
      dz2     :     0.030024  d :     0.207319
      dxz     :     0.046312
      dyz     :     0.000063
      dx2y2   :     0.089521
      dxy     :     0.041399
  7 O s       :     3.487952  s :     3.487952
      pz      :     1.442888  p :     4.461157
      px      :     1.432659
      py      :     1.585610
      dz2     :     0.029563  d :     0.207323
      dxz     :     0.000125
      dyz     :     0.047369
      dx2y2   :     0.088943
      dxy     :     0.041323
  8 O s       :     3.487931  s :     3.487931
      pz      :     1.442491  p :     4.461139
      px      :     1.585987
      py      :     1.432661
      dz2     :     0.029792  d :     0.207318
      dxz     :     0.046729
      dyz     :     0.000047
      dx2y2   :     0.089331
      dxy     :     0.041420
  9 C s       :     2.993687  s :     2.993687
      pz      :     1.074203  p :     2.315292
      px      :     0.620041
      py      :     0.621048
      dz2     :     0.225535  d :     0.688513
      dxz     :     0.218059
      dyz     :     0.218106
      dx2y2   :     0.014862
      dxy     :     0.011950
 10 O s       :     3.487142  s :     3.487142
      pz      :     1.583735  p :     4.500428
      px      :     1.458214
      py      :     1.458479
      dz2     :     0.116173  d :     0.218924
      dxz     :     0.050972
      dyz     :     0.051403
      dx2y2   :     0.000188
      dxy     :     0.000189
 11 F s       :     3.796031  s :     3.796031
      pz      :     1.831970  p :     5.683598
      px      :     1.925925
      py      :     1.925702
      dz2     :     0.076006  d :     0.182921
      dxz     :     0.049093
      dyz     :     0.049256
      dx2y2   :     0.004031
      dxy     :     0.004536


                      *****************************
                      * MAYER POPULATION ANALYSIS *
                      *****************************

  NA   - Mulliken gross atomic population
  ZA   - Total nuclear charge
  QA   - Mulliken gross atomic charge
  VA   - Mayer's total valence
  BVA  - Mayer's bonded valence
  FA   - Mayer's free valence

  ATOM       NA         ZA         QA         VA         BVA        FA
  0 Mo    15.0315    14.0000    -1.0315     7.0525     7.0525    -0.0000
  1 C      5.4476     6.0000     0.5524     3.3825     3.3825    -0.0000
  2 C      5.4475     6.0000     0.5525     3.3826     3.3826    -0.0000
  3 C      5.4474     6.0000     0.5526     3.3828     3.3828    -0.0000
  4 C      5.4476     6.0000     0.5524     3.3826     3.3826    -0.0000
  5 O      8.3648     8.0000    -0.3648     2.5217     2.5217    -0.0000
  6 O      8.3648     8.0000    -0.3648     2.5213     2.5213    -0.0000
  7 O      8.3648     8.0000    -0.3648     2.5217     2.5217    -0.0000
  8 O      8.3647     8.0000    -0.3647     2.5211     2.5211    -0.0000
  9 C      5.5150     6.0000     0.4850     3.4187     3.4187    -0.0000
 10 O      8.4179     8.0000    -0.4179     2.5387     2.5387    -0.0000
 11 F      9.7863     9.0000    -0.7863     0.2724     0.2724    -0.0000

  Mayer bond orders larger than 0.100000
B(  0-Mo,  1-C ) :   1.1288 B(  0-Mo,  2-C ) :   1.1290 B(  0-Mo,  3-C ) :   1.1290 
B(  0-Mo,  4-C ) :   1.1288 B(  0-Mo,  5-O ) :   0.1751 B(  0-Mo,  6-O ) :   0.1750 
B(  0-Mo,  7-O ) :   0.1749 B(  0-Mo,  8-O ) :   0.1750 B(  0-Mo,  9-C ) :   1.1908 
B(  0-Mo, 10-O ) :   0.2066 B(  0-Mo, 11-F ) :   0.4394 B(  1-C ,  5-O ) :   2.2531 
B(  2-C ,  8-O ) :   2.2527 B(  3-C ,  6-O ) :   2.2529 B(  4-C ,  7-O ) :   2.2533 
B(  9-C , 10-O ) :   2.2160 

-------
TIMINGS
-------

Total SCF time: 0 days 0 hours 0 min 44 sec 

Total time                  ....      44.675 sec
Sum of individual times     ....      43.988 sec  ( 98.5%)

Fock matrix formation       ....      39.727 sec  ( 88.9%)
  Split-RI-J                ....       3.173 sec  (  8.0% of F)
  Chain of spheres X        ....      26.981 sec  ( 67.9% of F)
  XC integration            ....       8.274 sec  ( 20.8% of F)
    Basis function eval.    ....       1.415 sec  ( 17.1% of XC)
    Density eval.           ....       3.355 sec  ( 40.5% of XC)
    XC-Functional eval.     ....       0.221 sec  (  2.7% of XC)
    XC-Potential eval.      ....       1.637 sec  ( 19.8% of XC)
Diagonalization             ....       0.858 sec  (  1.9%)
Density matrix formation    ....       0.027 sec  (  0.1%)
Population analysis         ....       0.072 sec  (  0.2%)
Initial guess               ....       1.260 sec  (  2.8%)
Orbital Transformation      ....       0.000 sec  (  0.0%)
Orbital Orthonormalization  ....       0.000 sec  (  0.0%)
DIIS solution               ....       0.618 sec  (  1.4%)
Grid generation             ....       1.426 sec  (  3.2%)

Maximum memory used throughout the entire SCF-calculation: 74.2 MB

-------------------------   --------------------
FINAL SINGLE POINT ENERGY      -734.099301829717
-------------------------   --------------------



           ************************************************************
           *        Program running with 8 parallel MPI-processes     *
           *              working on a common directory               *
           ************************************************************
------------------------------------------------------------------------------
                         ORCA SCF GRADIENT CALCULATION
------------------------------------------------------------------------------

 ... reading COSX grid (gridx3)
Gradient of the Kohn-Sham DFT energy:
Kohn-Sham wavefunction type      ... RKS
Hartree-Fock exchange scaling    ...    0.200
Number of operators              ...    1
Number of atoms                  ...   12
Basis set dimensions             ...  272
Integral neglect threshold       ... 2.5e-11
Integral primitive cutoff        ... 2.5e-12
SHARK Integral package           ... ON

Nuc. rep. gradient       (SHARK) ... done (  0.0 sec)
HCore & Overlap gradient (SHARK) ... done (  0.1 sec)
ECP gradient             (SHARK) ... done (  1.6 sec)
RI-J gradient            (SHARK) ... done (  0.6 sec)
COSX-gradient                    ... done (  4.3 sec)
Exchange-correlation gradient    ... done

------------------
CARTESIAN GRADIENT
------------------

   1   Mo  :   -0.001939871   -0.004130261    0.077635999
   2   C   :    0.000833678    0.087449053    0.001371861
   3   C   :   -0.087219759    0.000956279   -0.005068899
   4   C   :    0.087412053   -0.000710839   -0.001124812
   5   C   :   -0.000718268   -0.086890173   -0.007548554
   6   O   :   -0.000623604   -0.064289803   -0.000849478
   7   O   :   -0.064191012    0.000517559    0.000992558
   8   O   :    0.000520646    0.063826860    0.005768476
   9   O   :    0.064051343   -0.000735618    0.003941319
  10   C   :    0.002940087    0.006469073   -0.123698295
  11   O   :   -0.002086351   -0.004591628    0.087800599
  12   F   :    0.000393527    0.000704562   -0.038556128

Difference to translation invariance:
           :   -0.0006275294   -0.0014249370    0.0006646469

Difference to rotation invariance:
           :    0.0053070657    0.0001052349    0.0046915704

Norm of the cartesian gradient     ...    0.2786350234
RMS gradient                       ...    0.0464391706
MAX gradient                       ...    0.1236982955

-------
TIMINGS
-------

Total SCF gradient time            ...        9.793 sec

One electron gradient       ....       1.725 sec  ( 17.6%)
RI-J Coulomb gradient       ....       0.630 sec  (  6.4%)
COSX gradient               ....       4.275 sec  ( 43.7%)
XC gradient                 ....       2.388 sec  ( 24.4%)

Maximum memory used throughout the entire SCFGRAD-calculation: 47.5 MB
------------------------------------------------------------------------------
                         ORCA GEOMETRY RELAXATION STEP
------------------------------------------------------------------------------

Reading the OPT-File                    .... done
Getting information on internals        .... done
Copying old internal coords+grads       .... done
Making the new internal coordinates     .... (new redundants).... done
Validating the new internal coordinates .... (new redundants).... done
Calculating the B-matrix                .... done
Calculating the G,G- and P matrices     .... done
Transforming gradient to internals      .... done
Projecting the internal gradient        .... done
Number of atoms                         ....  12
Number of internal coordinates          ....  33
Current Energy                          ....  -734.099301830 Eh
Current gradient norm                   ....     0.278635023 Eh/bohr
Maximum allowed component of the step   ....  0.300
Current trust radius                    ....  0.300
Evaluating the initial hessian          ....  (Almloef) done
Projecting the Hessian                  .... done
Forming the augmented Hessian           .... done
Diagonalizing the augmented Hessian     .... done
Last element of RFO vector              ....  0.983173662
Lowest eigenvalues of augmented Hessian:
 -0.026915836  0.389618377  0.389651317  0.389677466  0.389715669
Length of the computed step             ....  0.185799672
The final length of the internal step   ....  0.185799672
Converting the step to cartesian space:
 Initial RMS(Int)=    0.0323435714
Transforming coordinates:
 Iter   0:  RMS(Cart)=    0.0276458327 RMS(Int)=    0.0323399160
 Iter   1:  RMS(Cart)=    0.0002620446 RMS(Int)=    0.0002374098
 Iter   2:  RMS(Cart)=    0.0001340885 RMS(Int)=    0.0001165361
 Iter   3:  RMS(Cart)=    0.0000682121 RMS(Int)=    0.0000593441
 Iter   4:  RMS(Cart)=    0.0000347561 RMS(Int)=    0.0000302184
 Iter   5:  RMS(Cart)=    0.0000177073 RMS(Int)=    0.0000153874
 Iter   6:  RMS(Cart)=    0.0000090214 RMS(Int)=    0.0000078354
 Iter   7:  RMS(Cart)=    0.0000045962 RMS(Int)=    0.0000039899
 Iter   8:  RMS(Cart)=    0.0000023417 RMS(Int)=    0.0000020317
 Iter   9:  RMS(Cart)=    0.0000011931 RMS(Int)=    0.0000010346
 Iter  10:  RMS(Cart)=    0.0000006079 RMS(Int)=    0.0000005268
 Iter  11:  RMS(Cart)=    0.0000003097 RMS(Int)=    0.0000002683
 Iter  12:  RMS(Cart)=    0.0000001578 RMS(Int)=    0.0000001366
 Iter  13:  RMS(Cart)=    0.0000000804 RMS(Int)=    0.0000000696
done
Storing new coordinates                 .... done

                                .--------------------.
          ----------------------|Geometry convergence|-------------------------
          Item                value                   Tolerance       Converged
          ---------------------------------------------------------------------
          RMS gradient        0.0297429308            0.0001000000      NO
          MAX gradient        0.0878826341            0.0003000000      NO
          RMS step            0.0323435714            0.0020000000      NO
          MAX step            0.0865991106            0.0040000000      NO
          ........................................................
          Max(Bonds)      0.0458      Max(Angles)    0.51
          Max(Dihed)        0.00      Max(Improp)    0.00
          ---------------------------------------------------------------------

The optimization has not yet converged - more geometry cycles are needed


    ---------------------------------------------------------------------------
                         Redundant Internal Coordinates
                            (Angstroem and degrees)

        Definition                    Value    dE/dq     Step     New-Value
    ----------------------------------------------------------------------------
     1. B(C   1,Mo  0)                2.1486  0.023421 -0.0298    2.1188   
     2. B(C   2,Mo  0)                2.1485  0.023078 -0.0293    2.1192   
     3. B(C   3,Mo  0)                2.1485  0.023324 -0.0296    2.1189   
     4. B(C   4,Mo  0)                2.1485  0.022861 -0.0290    2.1195   
     5. B(O   5,C   1)                1.1280 -0.064120  0.0227    1.1507   
     6. B(O   6,C   3)                1.1280 -0.064099  0.0227    1.1507   
     7. B(O   7,C   4)                1.1280 -0.064175  0.0228    1.1508   
     8. B(O   8,C   2)                1.1280 -0.064186  0.0228    1.1508   
     9. B(C   9,Mo  0)                2.1485  0.036082 -0.0458    2.1026   
    10. B(O  10,C   9)                1.1280 -0.087883  0.0312    1.1592   
    11. B(F  11,Mo  0)                1.9711 -0.038603  0.0315    2.0026   
    12. A(C   3,Mo  0,C   9)           89.97  0.001012   -0.11     89.85   
    13. A(C   2,Mo  0,C   9)           89.99  0.001013   -0.11     89.88   
    14. A(C   2,Mo  0,F  11)           90.02 -0.001763    0.20     90.21   
    15. A(C   3,Mo  0,C   4)           90.01  0.000395   -0.05     89.96   
    16. A(C   4,Mo  0,C   9)           90.01  0.000894   -0.10     89.91   
    17. A(C   2,Mo  0,C   4)           89.98  0.000898   -0.11     89.87   
    18. A(C   4,Mo  0,F  11)           90.01 -0.002955    0.33     90.34   
    19. A(C   1,Mo  0,C   2)           90.02 -0.000356    0.04     90.06   
    20. A(C   1,Mo  0,F  11)           90.03  0.000932   -0.10     89.93   
    21. A(C   3,Mo  0,F  11)           90.02 -0.000264    0.03     90.06   
    22. A(C   1,Mo  0,C   3)           90.00 -0.000935    0.11     90.11   
    23. A(C   1,Mo  0,C   9)           89.95  0.001128   -0.13     89.82   
    24. L(Mo  0,C   1,O   5,C   9, 2) 180.00  0.000045   -0.00    180.00   
    25. L(Mo  0,C   1,O   5,C   9, 1) 179.98  0.004638   -0.48    179.50   
    26. L(Mo  0,C   2,O   8,C   4, 2) 180.01 -0.001848    0.19    180.20   
    27. L(Mo  0,C   2,O   8,C   4, 1) 179.99  0.000282   -0.03    179.96   
    28. L(Mo  0,C   3,O   6,C   9, 1) 179.99  0.004894   -0.51    179.47   
    29. L(Mo  0,C   3,O   6,C   9, 2) 180.01 -0.000098    0.01    180.02   
    30. L(Mo  0,C   4,O   7,C   2, 2) 180.00  0.001937   -0.20    179.80   
    31. L(Mo  0,C   4,O   7,C   2, 1) 179.99  0.000112   -0.01    179.98   
    32. L(Mo  0,C   9,O  10,C   1, 2) 179.99  0.000011   -0.00    179.99   
    33. L(Mo  0,C   9,O  10,C   1, 1) 179.98  0.000123   -0.01    179.97   
    ----------------------------------------------------------------------------

         *************************************************************
         *                GEOMETRY OPTIMIZATION CYCLE   2            *
         *************************************************************
---------------------------------
CARTESIAN COORDINATES (ANGSTROEM)
---------------------------------
  Mo    -1.313278    0.803650   -0.047999
  C     -1.295829    2.919752    0.057577
  C     -3.431705    0.821680   -0.102848
  C      0.805020    0.779890   -0.003370
  C     -1.333091   -1.312567   -0.163551
  O     -1.286135    4.069433    0.104802
  O      1.955600    0.767325    0.010305
  O     -1.344170   -2.461451   -0.229201
  O     -4.581977    0.830753   -0.135558
  C     -1.262482    0.914461   -2.147103
  O     -1.234317    0.976156   -3.304276
  F     -1.358476    0.706638    1.951713

----------------------------
CARTESIAN COORDINATES (A.U.)
----------------------------
  NO LB      ZA    FRAG     MASS         X           Y           Z
   0 Mo   14.0000*   0    95.940   -2.481736    1.518679   -0.090705
   1 C     6.0000    0    12.011   -2.448763    5.517531    0.108804
   2 C     6.0000    0    12.011   -6.484982    1.552750   -0.194355
   3 C     6.0000    0    12.011    1.521268    1.473778   -0.006368
   4 C     6.0000    0    12.011   -2.519176   -2.480392   -0.309066
   5 O     8.0000    0    15.999   -2.430443    7.690114    0.198046
   6 O     8.0000    0    15.999    3.695548    1.450033    0.019474
   7 O     8.0000    0    15.999   -2.540114   -4.651468   -0.433127
   8 O     8.0000    0    15.999   -8.658681    1.569895   -0.256168
   9 C     6.0000    0    12.011   -2.385745    1.728082   -4.057436
  10 O     8.0000    0    15.999   -2.332522    1.844668   -6.244177
  11 F     9.0000    0    18.998   -2.567148    1.335353    3.688203
* core charge reduced due to ECP

--------------------------------
INTERNAL COORDINATES (ANGSTROEM)
--------------------------------
 Mo     0   0   0     0.000000000000     0.00000000     0.00000000
 C      1   0   0     2.118805227491     0.00000000     0.00000000
 C      1   2   0     2.119213312743    90.05871718     0.00000000
 C      1   2   3     2.118901605945    90.10984017   179.73185931
 C      1   2   3     2.119462273845   179.72335148    75.16581484
 O      2   1   3     1.150691506964   179.49589045   270.26671948
 O      4   1   2     1.150729231820   179.47376027   268.98701600
 O      5   1   2     1.150811652995   179.85407855     7.02497657
 O      3   1   2     1.150772742321   179.84995538   106.62038674
 C      1   2   3     2.102640225068    89.82304089    89.87735053
 O     10   1   2     1.159159079461   179.96893249    14.43350690
 F      1   2   3     2.002573990395    89.93187678   269.78835181

---------------------------
INTERNAL COORDINATES (A.U.)
---------------------------
 Mo     0   0   0     0.000000000000     0.00000000     0.00000000
 C      1   0   0     4.003961611080     0.00000000     0.00000000
 C      1   2   0     4.004732780444    90.05871718     0.00000000
 C      1   2   3     4.004143739961    90.10984017   179.73185931
 C      1   2   3     4.005203248746   179.72335148    75.16581484
 O      2   1   3     2.174491812791   179.49589045   270.26671948
 O      4   1   2     2.174563102437   179.47376027   268.98701600
 O      5   1   2     2.174718855885   179.85407855     7.02497657
 O      3   1   2     2.174645325368   179.84995538   106.62038674
 C      1   2   3     3.973414183545    89.82304089    89.87735053
 O     10   1   2     2.190493205829   179.96893249    14.43350690
 F      1   2   3     3.784316404761    89.93187678   269.78835181



           ************************************************************
           *        Program running with 8 parallel MPI-processes     *
           *              working on a common directory               *
           ************************************************************
------------------------------------------------------------------------------
                   ___                                                        
                  /   \      - P O W E R E D   B Y -                         
                 /     \                                                     
                 |  |  |   _    _      __       _____    __    __             
[...]
Number of atoms                         ....  12
Number of internal coordinates          ....  33
Current Energy                          ....  -734.129177788 Eh
Current gradient norm                   ....     0.007775145 Eh/bohr
Maximum allowed component of the step   ....  0.300
Current trust radius                    ....  0.300
Updating the Hessian (BFGS)             .... done
Forming the augmented Hessian           .... done
Diagonalizing the augmented Hessian     .... done
Last element of RFO vector              ....  0.999833317
Lowest eigenvalues of augmented Hessian:
 -0.000053529  0.101964254  0.200368719  0.389635961  0.389666096
Length of the computed step             ....  0.018260579
The final length of the internal step   ....  0.018260579
Converting the step to cartesian space:
 Initial RMS(Int)=    0.0031787588
Transforming coordinates:
 Iter   0:  RMS(Cart)=    0.0040342714 RMS(Int)=    0.0028340066
 Iter   1:  RMS(Cart)=    0.0004804521 RMS(Int)=    0.0004162675
 Iter   2:  RMS(Cart)=    0.0002404439 RMS(Int)=    0.0002085521
 Iter   3:  RMS(Cart)=    0.0001204841 RMS(Int)=    0.0001044854
 Iter   4:  RMS(Cart)=    0.0000603671 RMS(Int)=    0.0000523461
 Iter   5:  RMS(Cart)=    0.0000302445 RMS(Int)=    0.0000262245
 Iter   6:  RMS(Cart)=    0.0000151523 RMS(Int)=    0.0000131378
 Iter   7:  RMS(Cart)=    0.0000075911 RMS(Int)=    0.0000065817
 Iter   8:  RMS(Cart)=    0.0000038030 RMS(Int)=    0.0000032973
 Iter   9:  RMS(Cart)=    0.0000019053 RMS(Int)=    0.0000016518
 Iter  10:  RMS(Cart)=    0.0000009545 RMS(Int)=    0.0000008275
 Iter  11:  RMS(Cart)=    0.0000004782 RMS(Int)=    0.0000004146
 Iter  12:  RMS(Cart)=    0.0000002396 RMS(Int)=    0.0000002077
 Iter  13:  RMS(Cart)=    0.0000001200 RMS(Int)=    0.0000001040
 Iter  14:  RMS(Cart)=    0.0000000601 RMS(Int)=    0.0000000521
done
Storing new coordinates                 .... done

                                .--------------------.
          ----------------------|Geometry convergence|-------------------------
          Item                value                   Tolerance       Converged
          ---------------------------------------------------------------------
          Energy change      -0.0000855008            0.0000050000      NO
          RMS gradient        0.0009446216            0.0001000000      NO
          MAX gradient        0.0022318744            0.0003000000      NO
          RMS step            0.0031787588            0.0020000000      NO
          MAX step            0.0134039551            0.0040000000      NO
          ........................................................
          Max(Bonds)      0.0071      Max(Angles)    0.40
          Max(Dihed)        0.00      Max(Improp)    0.00
          ---------------------------------------------------------------------

The optimization has not yet converged - more geometry cycles are needed


    ---------------------------------------------------------------------------
                         Redundant Internal Coordinates
                            (Angstroem and degrees)

        Definition                    Value    dE/dq     Step     New-Value
    ----------------------------------------------------------------------------
     1. B(C   1,Mo  0)                2.0646 -0.000439  0.0019    2.0665   
     2. B(C   2,Mo  0)                2.0617 -0.000184  0.0008    2.0625   
     3. B(C   3,Mo  0)                2.0638 -0.000365  0.0016    2.0654   
     4. B(C   4,Mo  0)                2.0616 -0.000116  0.0005    2.0622   
     5. B(O   5,C   1)                1.1535 -0.002074  0.0006    1.1541   
     6. B(O   6,C   3)                1.1538 -0.002125  0.0006    1.1545   
     7. B(O   7,C   4)                1.1543 -0.002232  0.0008    1.1551   
     8. B(O   8,C   2)                1.1541 -0.002209  0.0007    1.1549   
     9. B(C   9,Mo  0)                1.9776 -0.000894  0.0009    1.9786   
    10. B(O  10,C   9)                1.1708 -0.002227  0.0006    1.1714   
    11. B(F  11,Mo  0)                2.1073 -0.001264  0.0071    2.1144   
    12. A(C   3,Mo  0,C   9)           89.48  0.000117   -0.04     89.45   
    13. A(C   2,Mo  0,C   9)           89.65  0.000150   -0.03     89.62   
    14. A(C   2,Mo  0,F  11)           90.91 -0.000218    0.08     90.99   
    15. A(C   3,Mo  0,C   4)           89.85 -0.000003   -0.00     89.85   
    16. A(C   4,Mo  0,C   9)           89.68  0.000085   -0.02     89.66   
    17. A(C   2,Mo  0,C   4)           89.50  0.000126   -0.05     89.45   
    18. A(C   4,Mo  0,F  11)           91.51 -0.000290    0.12     91.63   
    19. A(C   1,Mo  0,C   2)           90.19 -0.000049    0.02     90.21   
    20. A(C   1,Mo  0,F  11)           89.19  0.000228   -0.11     89.07   
    21. A(C   3,Mo  0,F  11)           89.97 -0.000053   -0.01     89.96   
    22. A(C   1,Mo  0,C   3)           90.45 -0.000070    0.03     90.48   
    23. A(C   1,Mo  0,C   9)           89.63 -0.000024    0.02     89.65   
    24. L(Mo  0,C   1,O   5,C   9, 2) 179.91  0.000084   -0.03    179.89   
    25. L(Mo  0,C   1,O   5,C   9, 1) 177.42 -0.000077   -0.08    177.34   
    26. L(Mo  0,C   2,O   8,C   4, 2) 181.79 -0.001107    0.37    182.16   
    27. L(Mo  0,C   2,O   8,C   4, 1) 179.57  0.000184   -0.07    179.49   
    28. L(Mo  0,C   3,O   6,C   9, 1) 177.11  0.000146   -0.16    176.96   
    29. L(Mo  0,C   3,O   6,C   9, 2) 180.20 -0.000180    0.06    180.26   
    30. L(Mo  0,C   4,O   7,C   2, 2) 178.11  0.001186   -0.40    177.71   
    31. L(Mo  0,C   4,O   7,C   2, 1) 179.76  0.000131   -0.05    179.71   
    32. L(Mo  0,C   9,O  10,C   1, 2) 179.89  0.000131   -0.04    179.85   
    33. L(Mo  0,C   9,O  10,C   1, 1) 179.61  0.000145   -0.06    179.54   
    ----------------------------------------------------------------------------

         *************************************************************
         *                GEOMETRY OPTIMIZATION CYCLE   8            *
         *************************************************************
---------------------------------
CARTESIAN COORDINATES (ANGSTROEM)
---------------------------------
  Mo    -1.313526    0.804007   -0.055865
  C     -1.300440    2.868044    0.043773
  C     -3.374864    0.812781   -0.125295
  C      0.751332    0.772090   -0.021347
  C     -1.337797   -1.254225   -0.180646
  O     -1.293320    4.022121    0.045785
  O      1.904873    0.753805   -0.063487
  O     -1.355626   -2.404599   -0.283566
  O     -4.527582    0.809811   -0.195803
  C     -1.259724    0.911265   -2.030773
  O     -1.225646    0.984086   -3.199456
  F     -1.348518    0.736535    2.057171

----------------------------
CARTESIAN COORDINATES (A.U.)
----------------------------
  NO LB      ZA    FRAG     MASS         X           Y           Z
   0 Mo   14.0000*   0    95.940   -2.482205    1.519352   -0.105570
   1 C     6.0000    0    12.011   -2.457476    5.419818    0.082718
   2 C     6.0000    0    12.011   -6.377569    1.535933   -0.236773
   3 C     6.0000    0    12.011    1.419811    1.459038   -0.040340
   4 C     6.0000    0    12.011   -2.528069   -2.370142   -0.341372
   5 O     8.0000    0    15.999   -2.444021    7.600707    0.086521
   6 O     8.0000    0    15.999    3.599688    1.424485   -0.119973
   7 O     8.0000    0    15.999   -2.561763   -4.544033   -0.535862
   8 O     8.0000    0    15.999   -8.555891    1.530322   -0.370013
   9 C     6.0000    0    12.011   -2.380534    1.722040   -3.837606
  10 O     8.0000    0    15.999   -2.316135    1.859653   -6.046096
  11 F     9.0000    0    18.998   -2.548330    1.391849    3.887489
* core charge reduced due to ECP

--------------------------------
INTERNAL COORDINATES (ANGSTROEM)
--------------------------------
 Mo     0   0   0     0.000000000000     0.00000000     0.00000000
 C      1   0   0     2.066482463615     0.00000000     0.00000000
 C      1   2   0     2.062525303951    90.21216730     0.00000000
 C      1   2   3     2.065392931158    90.47545690   179.06062775
 C      1   2   3     2.062153290129   179.22871384    64.23633023
 O      2   1   3     1.154100515729   177.33622539   272.13185247
 O      4   1   2     1.154455611485   176.95042273   266.80465225
 O      5   1   3     1.155106238689   178.34366346    80.76242838
 O      3   1   2     1.154876634282   178.38094636   106.72496303
 C      1   2   3     1.978550116316    89.64528295    89.61741862
 O     10   1   2     1.171445286038   179.53055860    13.05578223
 F      1   2   3     2.114402443608    89.07133514   269.01566425

---------------------------
INTERNAL COORDINATES (A.U.)
---------------------------
 Mo     0   0   0     0.000000000000     0.00000000     0.00000000
 C      1   0   0     3.905085916784     0.00000000     0.00000000
 C      1   2   0     3.897607968750    90.21216730     0.00000000
 C      1   2   3     3.903026998825    90.47545690   179.06062775
 C      1   2   3     3.896904964508   179.22871384    64.23633023
 O      2   1   3     2.180933905745   177.33622539   272.13185247
 O      4   1   2     2.181604939476   176.95042273   266.80465225
 O      5   1   3     2.182834446706   178.34366346    80.76242838
 O      3   1   2     2.182400557258   178.38094636   106.72496303
 C      1   2   3     3.738917862076    89.64528295    89.61741862
 O     10   1   2     2.213710771485   179.53055860    13.05578223
 F      1   2   3     3.995641555312    89.07133514   269.01566425



           ************************************************************
           *        Program running with 8 parallel MPI-processes     *
           *              working on a common directory               *
           ************************************************************
------------------------------------------------------------------------------
                   ___                                                        
                  /   \      - P O W E R E D   B Y -                         
                 /     \                                                     
                 |  |  |   _    _      __       _____    __    __             
                 |  |  |  | |  | |    /  \     |  _  \  |  |  /  |          
                  \  \/   | |  | |   /    \    | | | |  |  | /  /          
                 / \  \   | |__| |  /  /\  \   | |_| |  |  |/  /          
                |  |  |   |  __  | /  /__\  \  |    /   |      \           
                |  |  |   | |  | | |   __   |  |    \   |  |\   \          
                \     /   | |  | | |  |  |  |  | |\  \  |  | \   \       
                 \___/    |_|  |_| |__|  |__|  |_| \__\ |__|  \__/        
                                                                              
                      - O R C A' S   B I G   F R I E N D -                    
                                      &                                       
                       - I N T E G R A L  F E E D E R -                       
                                                                              
 v1 FN, 2020, v2 2021                                                         
------------------------------------------------------------------------------


Reading SHARK input file MoCO5F-.SHARKINP.tmp ... ok
----------------------
SHARK INTEGRAL PACKAGE
----------------------

Number of atoms                             ...     12
Number of basis functions                   ...    272
Number of shells                            ...    106
Maximum angular momentum                    ...      3
Integral batch strategy                     ... SHARK/LIBINT Hybrid
RI-J (if used) integral strategy            ... SPLIT-RIJ (Revised 2003 algorithm where possible)
Printlevel                                  ...      1
Contraction scheme used                     ... SEGMENTED contraction
Coulomb Range Separation                    ... NOT USED
Exchange Range Separation                   ... NOT USED
Finite Nucleus Model                        ... NOT USED
Auxiliary Coulomb fitting basis             ... AVAILABLE
   # of basis functions in Aux-J            ...    628
   # of shells in Aux-J                     ...    188
   Maximum angular momentum in Aux-J        ...      4
Auxiliary J/K fitting basis                 ... NOT available
Auxiliary Correlation fitting basis         ... NOT available
Auxiliary 'external' fitting basis          ... NOT available
Integral threshold                          ...     2.500000e-11
Primitive cut-off                           ...     2.500000e-12
Primitive pair pre-selection threshold      ...     2.500000e-12

Calculating pre-screening integrals         ... done (  0.0 sec) Dimension = 106
Organizing shell pair data                  ... done (  0.1 sec)
Shell pair information
Total number of shell pairs                 ...      5671
Shell pairs after pre-screening             ...      5209
Total number of primitive shell pairs       ...     16448
Primitive shell pairs kept                  ...     11689
          la=0 lb=0:   1083 shell pairs
          la=1 lb=0:   1454 shell pairs
          la=1 lb=1:    505 shell pairs
          la=2 lb=0:   1054 shell pairs
          la=2 lb=1:    726 shell pairs
          la=2 lb=2:    281 shell pairs
          la=3 lb=0:     49 shell pairs
          la=3 lb=1:     32 shell pairs
          la=3 lb=2:     24 shell pairs
          la=3 lb=3:      1 shell pairs

Calculating one electron integrals          ... done (  0.0 sec)
Calculating ECP integrals                   ... done (  0.4 sec)
Calculating RI/J V-Matrix + Cholesky decomp.... done (  0.0 sec)
Calculating Nuclear repulsion               ... done (  0.0 sec) ENN=    693.665661766518 Eh

SHARK setup successfully completed in   0.7 seconds

Maximum memory used throughout the entire GTOINT-calculation: 17.3 MB


           ************************************************************
           *        Program running with 8 parallel MPI-processes     *
           *              working on a common directory               *
           ************************************************************

Diagonalization of the overlap matrix:
Smallest eigenvalue                        ... 2.789e-05
Time for diagonalization                   ...    0.014 sec
Threshold for overlap eigenvalues          ... 1.000e-08
Number of eigenvalues below threshold      ... 0
Time for construction of square roots      ...    0.028 sec
Total time needed                          ...    0.042 sec

-------------------
DFT GRID GENERATION
-------------------

General Integration Accuracy     IntAcc      ... 4.388
Radial Grid Type                 RadialGrid  ... OptM3 with GC (2021)
Angular Grid (max. ang.)         AngularGrid ... 4 (Lebedev-302)
Angular grid pruning method      GridPruning ... 4 (adaptive)
Weight generation scheme         WeightScheme... Becke
Basis function cutoff            BFCut       ... 1.0000e-11
Integration weight cutoff        WCut        ... 1.0000e-14
Angular grids for H and He will be reduced by one unit
Partially contracted basis set               ... off
Rotationally invariant grid construction     ... off

Total number of grid points                  ...    79735
Total number of batches                      ...     1253
Average number of points per batch           ...       63
Average number of grid points per atom       ...     6645
Time for grid setup =    0.560 sec

--------------------
COSX GRID GENERATION
--------------------

GRIDX 1
-------
General Integration Accuracy     IntAcc      ... 3.816
Radial Grid Type                 RadialGrid  ... OptM3 with GC (2021)
Angular Grid (max. ang.)         AngularGrid ... 1 (Lebedev-50)
Angular grid pruning method      GridPruning ... 4 (adaptive)
Weight generation scheme         WeightScheme... Becke
Basis function cutoff            BFCut       ... 1.0000e-11
Integration weight cutoff        WCut        ... 1.0000e-14
Angular grids for H and He will be reduced by one unit
Partially contracted basis set               ... on
Rotationally invariant grid construction     ... off

Total number of grid points                  ...     9774
Total number of batches                      ...      161
Average number of points per batch           ...       60
Average number of grid points per atom       ...      815
UseSFitting                                  ... on

GRIDX 2
-------
General Integration Accuracy     IntAcc      ... 4.020
Radial Grid Type                 RadialGrid  ... OptM3 with GC (2021)
Angular Grid (max. ang.)         AngularGrid ... 2 (Lebedev-110)
Angular grid pruning method      GridPruning ... 4 (adaptive)
Weight generation scheme         WeightScheme... Becke
Basis function cutoff            BFCut       ... 1.0000e-11
Integration weight cutoff        WCut        ... 1.0000e-14
Angular grids for H and He will be reduced by one unit
Partially contracted basis set               ... on
Rotationally invariant grid construction     ... off

Total number of grid points                  ...    25298
Total number of batches                      ...      401
Average number of points per batch           ...       63
Average number of grid points per atom       ...     2108
UseSFitting                                  ... on

GRIDX 3
-------
General Integration Accuracy     IntAcc      ... 4.338
Radial Grid Type                 RadialGrid  ... OptM3 with GC (2021)
Angular Grid (max. ang.)         AngularGrid ... 3 (Lebedev-194)
Angular grid pruning method      GridPruning ... 4 (adaptive)
Weight generation scheme         WeightScheme... Becke
Basis function cutoff            BFCut       ... 1.0000e-11
Integration weight cutoff        WCut        ... 1.0000e-14
Angular grids for H and He will be reduced by one unit
Partially contracted basis set               ... on
Rotationally invariant grid construction     ... off

Total number of grid points                  ...    54498
Total number of batches                      ...      858
Average number of points per batch           ...       63
Average number of grid points per atom       ...     4542
UseSFitting                                  ... on

Time for X-Grid setup             =    0.743 sec

--------------
SCF ITERATIONS
--------------
ITER       Energy         Delta-E        Max-DP      RMS-DP      [F,P]     Damp
               ***  Starting incremental Fock matrix formation  ***
  0   -734.1292308511   0.000000000000 0.00208634  0.00003799  0.0147528 0.7000
  1   -734.1292577153  -0.000026864261 0.00204316  0.00003560  0.0104011 0.7000
                               ***Turning on DIIS***
  2   -734.1292779262  -0.000020210933 0.00546770  0.00009250  0.0072962 0.0000
  3   -734.1293278139  -0.000049887612 0.00072087  0.00001401  0.0002605 0.0000
               *** Restarting incremental Fock matrix formation ***
                                   *** Resetting DIIS ***
  4   -734.1293283813  -0.000000567445 0.00049917  0.00001393  0.0001304 0.0000
  5   -734.1293268320   0.000001549295 0.00035596  0.00000954  0.0003279 0.0000
  6   -734.1293286945  -0.000001862529 0.00011909  0.00000198  0.0000438 0.0000
  7   -734.1293286826   0.000000011933 0.00009541  0.00000125  0.0000702 0.0000
  8   -734.1293287092  -0.000000026636 0.00003855  0.00000084  0.0000206 0.0000
  9   -734.1293287126  -0.000000003312 0.00006447  0.00000102  0.0000104 0.0000

job aborted:
[ranks] message

[0] job terminated by the user

[1-7] terminated

---- error analysis -----

[0] on LAPTOP-K1S0PNN7
ctrl-c was hit. job aborted by the user.

---- error analysis -----
