
                                 *****************
                                 * O   R   C   A *
                                 *****************

                                            #,                                       
                                            ###                                      
                                            ####                                     
                                            #####                                    
                                            ######                                   
                                           ########,                                 
                                     ,,################,,,,,                         
                               ,,#################################,,                 
                          ,,##########################################,,             
                       ,#########################################, ''#####,          
                    ,#############################################,,   '####,        
                  ,##################################################,,,,####,       
                ,###########''''           ''''###############################       
              ,#####''   ,,,,##########,,,,          '''####'''          '####       
            ,##' ,,,,###########################,,,                        '##       
           ' ,,###''''                  '''############,,,                           
         ,,##''                                '''############,,,,        ,,,,,,###''
      ,#''                                            '''#######################'''  
     '                                                          ''''####''''         
             ,#######,   #######,   ,#######,      ##                                
            ,#'     '#,  ##    ##  ,#'     '#,    #''#        ######   ,####,        
            ##       ##  ##   ,#'  ##            #'  '#       #        #'  '#        
            ##       ##  #######   ##           ,######,      #####,   #    #        
            '#,     ,#'  ##    ##  '#,     ,#' ,#      #,         ##   #,  ,#        
             '#######'   ##     ##  '#######'  #'      '#     #####' # '####'        



                  #######################################################
                  #                        -***-                        #
                  #          Department of theory and spectroscopy      #
                  #    Directorship and core code : Frank Neese         #
                  #        Max Planck Institute fuer Kohlenforschung    #
                  #                Kaiser Wilhelm Platz 1               #
                  #                 D-45470 Muelheim/Ruhr               #
                  #                      Germany                        #
                  #                                                     #
                  #                  All rights reserved                #
                  #                        -***-                        #
                  #######################################################



                         Program Version 5.0.4 -  RELEASE  -

 With contributions from (in alphabetic order):
   Daniel Aravena         : Magnetic Suceptibility
   Michael Atanasov       : Ab Initio Ligand Field Theory (pilot matlab implementation)
   Alexander A. Auer      : GIAO ZORA, VPT2 properties, NMR spectrum
   Ute Becker             : Parallelization
   Giovanni Bistoni       : ED, misc. LED, open-shell LED, HFLD
   Martin Brehm           : Molecular dynamics
   Dmytro Bykov           : SCF Hessian
   Vijay G. Chilkuri      : MRCI spin determinant printing, contributions to CSF-ICE
   Dipayan Datta          : RHF DLPNO-CCSD density
   Achintya Kumar Dutta   : EOM-CC, STEOM-CC
   Dmitry Ganyushin       : Spin-Orbit,Spin-Spin,Magnetic field MRCI
   Miquel Garcia          : C-PCM and meta-GGA Hessian, CC/C-PCM, Gaussian charge scheme
   Yang Guo               : DLPNO-NEVPT2, F12-NEVPT2, CIM, IAO-localization
   Andreas Hansen         : Spin unrestricted coupled pair/coupled cluster methods
   Benjamin Helmich-Paris : MC-RPA, TRAH-SCF, COSX integrals
   Lee Huntington         : MR-EOM, pCC
   Robert Izsak           : Overlap fitted RIJCOSX, COSX-SCS-MP3, EOM
   Marcus Kettner         : VPT2
   Christian Kollmar      : KDIIS, OOCD, Brueckner-CCSD(T), CCSD density, CASPT2, CASPT2-K
   Simone Kossmann        : Meta GGA functionals, TD-DFT gradient, OOMP2, MP2 Hessian
   Martin Krupicka        : Initial AUTO-CI
   Lucas Lang             : DCDCAS
   Marvin Lechner         : AUTO-CI (C++ implementation), FIC-MRCC
   Dagmar Lenk            : GEPOL surface, SMD
   Dimitrios Liakos       : Extrapolation schemes; Compound Job, initial MDCI parallelization
   Dimitrios Manganas     : Further ROCIS development; embedding schemes
   Dimitrios Pantazis     : SARC Basis sets
   Anastasios Papadopoulos: AUTO-CI, single reference methods and gradients
   Taras Petrenko         : DFT Hessian,TD-DFT gradient, ASA, ECA, R-Raman, ABS, FL, XAS/XES, NRVS
   Peter Pinski           : DLPNO-MP2, DLPNO-MP2 Gradient
   Christoph Reimann      : Effective Core Potentials
   Marius Retegan         : Local ZFS, SOC
   Christoph Riplinger    : Optimizer, TS searches, QM/MM, DLPNO-CCSD(T), (RO)-DLPNO pert. Triples
   Tobias Risthaus        : Range-separated hybrids, TD-DFT gradient, RPA, STAB
   Michael Roemelt        : Original ROCIS implementation
   Masaaki Saitow         : Open-shell DLPNO-CCSD energy and density
   Barbara Sandhoefer     : DKH picture change effects
   Avijit Sen             : IP-ROCIS
   Kantharuban Sivalingam : CASSCF convergence, NEVPT2, FIC-MRCI
   Bernardo de Souza      : ESD, SOC TD-DFT
   Georgi Stoychev        : AutoAux, RI-MP2 NMR, DLPNO-MP2 response
   Willem Van den Heuvel  : Paramagnetic NMR
   Boris Wezisla          : Elementary symmetry handling
   Frank Wennmohs         : Technical directorship


 We gratefully acknowledge several colleagues who have allowed us to
 interface, adapt or use parts of their codes:
   Stefan Grimme, W. Hujo, H. Kruse, P. Pracht,  : VdW corrections, initial TS optimization,
                  C. Bannwarth, S. Ehlert          DFT functionals, gCP, sTDA/sTD-DF
   Ed Valeev, F. Pavosevic, A. Kumar             : LibInt (2-el integral package), F12 methods
   Garnet Chan, S. Sharma, J. Yang, R. Olivares  : DMRG
   Ulf Ekstrom                                   : XCFun DFT Library
   Mihaly Kallay                                 : mrcc  (arbitrary order and MRCC methods)
   Jiri Pittner, Ondrej Demel                    : Mk-CCSD
   Frank Weinhold                                : gennbo (NPA and NBO analysis)
   Christopher J. Cramer and Donald G. Truhlar   : smd solvation model
   Lars Goerigk                                  : TD-DFT with DH, B97 family of functionals
   V. Asgeirsson, H. Jonsson                     : NEB implementation
   FAccTs GmbH                                   : IRC, NEB, NEB-TS, DLPNO-Multilevel, CI-OPT
                                                   MM, QMMM, 2- and 3-layer-ONIOM, Crystal-QMMM,
                                                   LR-CPCM, SF, NACMEs, symmetry and pop. for TD-DFT,
                                                   nearIR, NL-DFT gradient (VV10), updates on ESD,
                                                   ML-optimized integration grids
   S Lehtola, MJT Oliveira, MAL Marques          : LibXC Library
   Liviu Ungur et al                             : ANISO software


 Your calculation uses the libint2 library for the computation of 2-el integrals
 For citations please refer to: http://libint.valeyev.net

 Your ORCA version has been built with support for libXC version: 5.1.0
 For citations please refer to: https://tddft.org/programs/libxc/

 This ORCA versions uses:
   CBLAS   interface :  Fast vector & matrix operations
   LAPACKE interface :  Fast linear algebra routines
   Shared memory     :  Shared parallel matrices


================================================================================

cite the ECPs for Mo [Def2-ECP] as follows:
Ce-Yb(ecp-28): M. Dolg, H. Stoll, H.Preuss, J. Chem. Phys., 1989, 90, 1730-1734.
Y-Cd(ecp-28), Hf-Hg(ecp-46): D. Andrae,U. Haeussermann, M. Dolg, H. Stoll, H. Preuss, Theor. Chim. Acta, 1990, 77, 123-141.
In-Sb(ecp-28), Tl-Bi(ecp-46): B. Metz, H. Stoll, M. Dolg, J. Chem. Phys., 2000, 113, 2563-2569.
Te-Xe(ecp-28), Po-Rn(ecp-46): K. A. Peterson, D. Figgen, E. Goll, H. Stoll, M. Dolg, J. Chem. Phys., 2003, 119, 11113-11123.
Rb(ecp-28), Cs(ecp-46): T. Leininger, A. Nicklass, W. Kuechle, H. Stoll, M. Dolg, A. Bergner, Chem. Phys. Lett., 1996, 255, 274-280.
Sr(ecp-28), Ba(ecp-46): M. Kaupp, P. V. Schleyer, H. Stoll and H. Preuss, J. Chem. Phys., 1991, 94, 1360-1366.
La(ecp-46): M. Dolg, H. Stoll, A. Savin, H. Preuss, Theor. Chim. Acta, 1989, 75, 173-194.
Lu(ecp-28): X. Cao, M. Dolg, J. Chem. Phys., 2001, 115, 7348-7355.

ECP parameters for Mo [Def2-ECP] have been obtained from:
TURBOMOLE (7.0.2)

----- Orbital basis set information -----
Your calculation utilizes the basis: def2-SVPD
   F. Weigend and R. Ahlrichs, Phys. Chem. Chem. Phys. 7, 3297 (2005).
   D. Rappoport and F. Furche, J. Chem. Phys. 133 134105 (2010).

----- AuxJ basis set information -----
Your calculation utilizes the auxiliary basis: def2/J
   F. Weigend, Phys. Chem. Chem. Phys. 8, 1057 (2006).

================================================================================
                                        WARNINGS
                       Please study these warnings very carefully!
================================================================================


WARNING: Geometry Optimization
  ===> : Switching off AutoStart
         For restart on a previous wavefunction, please use MOREAD

INFO   : the flag for use of the SHARK integral package has been found!

================================================================================
                                       INPUT FILE
================================================================================
NAME = MoCO6.inp
|  1> !B3LYP def2-SVPD OPT FREQ TightSCF PAL8
|  2> 
|  3> %scf
|  4>   MaxIter 300
|  5> end
|  6> 
|  7> * xyz 0 1 
|  8> Mo        -1.16223        1.46231        0.00440
|  9> C         -1.14093        3.60205        0.19585
| 10> C          0.98556        1.43752        0.04741
| 11> C         -3.31010        1.48732       -0.03858
| 12> C         -1.18366       -0.67745       -0.18705
| 13> O         -1.12965        4.72557        0.29572
| 14> O          2.11331        1.42466        0.06986
| 15> O         -1.19503       -1.80094       -0.28692
| 16> O         -4.43774        1.50041       -0.06100
| 17> C         -1.11654        1.65584       -2.13477
| 18> C         -1.20787        1.26853        2.14358
| 19> O         -1.09237        1.75804       -3.25788
| 20> O         -1.23196        1.16609        3.26663
| 21> **                         ****END OF INPUT****
================================================================================

                       *****************************
                       * Geometry Optimization Run *
                       *****************************

Geometry optimization settings:
Update method            Update   .... BFGS
Choice of coordinates    CoordSys .... Z-matrix Internals
Initial Hessian          InHess   .... Almoef's Model

Convergence Tolerances:
Energy Change            TolE     ....  5.0000e-06 Eh
Max. Gradient            TolMAXG  ....  3.0000e-04 Eh/bohr
RMS Gradient             TolRMSG  ....  1.0000e-04 Eh/bohr
Max. Displacement        TolMAXD  ....  4.0000e-03 bohr
RMS Displacement         TolRMSD  ....  2.0000e-03 bohr
Strict Convergence                ....  False
------------------------------------------------------------------------------
                        ORCA OPTIMIZATION COORDINATE SETUP
------------------------------------------------------------------------------

The optimization will be done in new redundant internal coordinates
Making redundant internal coordinates   ...  (new redundants) done
Evaluating the initial hessian          ...  (Almloef) done
Evaluating the coordinates              ...  done
Calculating the B-matrix                .... done
Calculating the G-matrix                .... done
Diagonalizing the G-matrix              .... done
The first mode is                       ....    3
The number of degrees of freedom        ....   33

    -----------------------------------------------------------------
                    Redundant Internal Coordinates


    -----------------------------------------------------------------
         Definition                    Initial Value    Approx d2E/dq
    -----------------------------------------------------------------
      1. B(C   1,Mo  0)                  2.1484         0.389848   
      2. B(C   2,Mo  0)                  2.1484         0.389890   
      3. B(C   3,Mo  0)                  2.1484         0.389773   
      4. B(C   4,Mo  0)                  2.1484         0.389817   
      5. B(O   5,C   1)                  1.1280         1.465108   
      6. B(O   6,C   2)                  1.1280         1.464891   
      7. B(O   7,C   4)                  1.1280         1.465264   
      8. B(O   8,C   3)                  1.1279         1.465471   
      9. B(C   9,Mo  0)                  2.1484         0.389849   
     10. B(C  10,Mo  0)                  2.1484         0.389804   
     11. B(O  11,C   9)                  1.1280         1.465092   
     12. B(O  12,C  10)                  1.1280         1.465305   
     13. A(C   3,Mo  0,C   9)           90.0168         0.462061   
     14. A(C   2,Mo  0,C   9)           89.9835         0.462087   
     15. A(C   1,Mo  0,C  10)           90.0753         0.462068   
     16. A(C   4,Mo  0,C  10)           89.9246         0.462061   
     17. A(C   4,Mo  0,C   9)           90.0688         0.462071   
     18. A(C   2,Mo  0,C  10)           90.0151         0.462077   
     19. A(C   3,Mo  0,C  10)           89.9846         0.462051   
     20. A(C   3,Mo  0,C   4)           89.9908         0.462054   
     21. A(C   1,Mo  0,C   2)           89.9884         0.462086   
     22. A(C   1,Mo  0,C   3)           90.0058         0.462061   
     23. A(C   2,Mo  0,C   4)           90.0151         0.462080   
     24. A(C   1,Mo  0,C   9)           89.9313         0.462077   
     25. L(Mo  0,C   1,O   5,C   9, 2) 180.0059         0.521309   
     26. L(Mo  0,C   1,O   5,C   9, 1) 179.9668         0.521309   
     27. L(Mo  0,C   2,O   6,C   9, 1) 179.9925         0.521305   
     28. L(Mo  0,C   2,O   6,C   9, 2) 179.9897         0.521305   
     29. L(Mo  0,C   3,O   8,C  10, 2) 180.0019         0.521314   
     30. L(Mo  0,C   3,O   8,C  10, 1) 179.9925         0.521314   
     31. L(Mo  0,C   4,O   7,C  10, 2) 179.9925         0.521312   
     32. L(Mo  0,C   4,O   7,C  10, 1) 179.9669         0.521312   
     33. L(Mo  0,C   9,O  11,C   1, 2) 179.9875         0.521308   
     34. L(Mo  0,C   9,O  11,C   1, 1) 179.9699         0.521308   
     35. L(Mo  0,C  10,O  12,C   4, 2) 180.0087         0.521311   
     36. L(Mo  0,C  10,O  12,C   4, 1) 179.9642         0.521311   
    -----------------------------------------------------------------

Number of atoms                         .... 13
Number of degrees of freedom            .... 36

         *************************************************************
         *                GEOMETRY OPTIMIZATION CYCLE   1            *
         *************************************************************
---------------------------------
CARTESIAN COORDINATES (ANGSTROEM)
---------------------------------
  Mo    -1.162230    1.462310    0.004400
  C     -1.140930    3.602050    0.195850
  C      0.985560    1.437520    0.047410
  C     -3.310100    1.487320   -0.038580
  C     -1.183660   -0.677450   -0.187050
  O     -1.129650    4.725570    0.295720
  O      2.113310    1.424660    0.069860
  O     -1.195030   -1.800940   -0.286920
  O     -4.437740    1.500410   -0.061000
  C     -1.116540    1.655840   -2.134770
  C     -1.207870    1.268530    2.143580
  O     -1.092370    1.758040   -3.257880
  O     -1.231960    1.166090    3.266630

----------------------------
CARTESIAN COORDINATES (A.U.)
----------------------------
  NO LB      ZA    FRAG     MASS         X           Y           Z
   0 Mo   14.0000*   0    95.940   -2.196296    2.763365    0.008315
   1 C     6.0000    0    12.011   -2.156045    6.806888    0.370103
   2 C     6.0000    0    12.011    1.862438    2.716519    0.089592
   3 C     6.0000    0    12.011   -6.255182    2.810627   -0.072906
   4 C     6.0000    0    12.011   -2.236793   -1.280195   -0.353473
   5 O     8.0000    0    15.999   -2.134729    8.930033    0.558830
   6 O     8.0000    0    15.999    3.993577    2.692217    0.132016
   7 O     8.0000    0    15.999   -2.258279   -3.403283   -0.542200
   8 O     8.0000    0    15.999   -8.386113    2.835364   -0.115273
   9 C     6.0000    0    12.011   -2.109955    3.129084   -4.034131
  10 C     6.0000    0    12.011   -2.282544    2.397174    4.050779
  11 O     8.0000    0    15.999   -2.064280    3.322214   -6.156501
  12 O     8.0000    0    15.999   -2.328067    2.203591    6.173036
* core charge reduced due to ECP

--------------------------------
INTERNAL COORDINATES (ANGSTROEM)
--------------------------------
 Mo     0   0   0     0.000000000000     0.00000000     0.00000000
 C      1   0   0     2.148393367170     0.00000000     0.00000000
 C      1   2   0     2.148363630371    89.98835550     0.00000000
 C      1   2   3     2.148445558398    90.00575048   179.99968008
 C      1   2   3     2.148414579405   179.99653816   178.01177041
 O      2   1   3     1.128006403218   179.96648909    82.78929301
 O      3   1   2     1.128046738659   179.98955181   314.45941286
 O      5   1   3     1.127977426148   179.96648565    99.15931487
 O      4   1   2     1.127938816647   179.99237294   259.52716301
 C      1   2   3     2.148392358462    89.93131615   270.01648653
 C      1   2   3     2.148423787431    90.07528620    90.01506959
 O     10   1   2     1.128009353241   179.96864947    16.44691768
 O     11   1   2     1.127969673440   179.96363431   170.26474939

---------------------------
INTERNAL COORDINATES (A.U.)
---------------------------
 Mo     0   0   0     0.000000000000     0.00000000     0.00000000
 C      1   0   0     4.059875091884     0.00000000     0.00000000
 C      1   2   0     4.059818897478    89.98835550     0.00000000
 C      1   2   3     4.059973719012    90.00575048   179.99968008
 C      1   2   3     4.059915177199   179.99653816   178.01177041
 O      2   1   3     2.131623179391   179.96648909    82.78929301
 O      3   1   2     2.131699402329   179.98955181   314.45941286
 O      5   1   3     2.131568420666   179.96648565    99.15931487
 O      4   1   2     2.131495459283   179.99237294   259.52716301
 C      1   2   3     4.059873185703    89.93131615   270.01648653
 C      1   2   3     4.059932577847    90.07528620    90.01506959
 O     10   1   2     2.131628754128   179.96864947    16.44691768
 O     11   1   2     2.131553770170   179.96363431   170.26474939

---------------------
BASIS SET INFORMATION
---------------------
There are 3 groups of distinct atoms

 Group   1 Type Mo  : 7s7p5d1f contracted to 5s4p2d1f pattern {31111/4111/41/1}
 Group   2 Type C   : 8s4p2d contracted to 4s2p2d pattern {5111/31/11}
 Group   3 Type O   : 8s5p2d contracted to 4s3p2d pattern {5111/311/11}

Atom   0Mo   basis set group =>   1
Atom   1C    basis set group =>   2
Atom   2C    basis set group =>   2
Atom   3C    basis set group =>   2
Atom   4C    basis set group =>   2
Atom   5O    basis set group =>   3
Atom   6O    basis set group =>   3
Atom   7O    basis set group =>   3
Atom   8O    basis set group =>   3
Atom   9C    basis set group =>   2
Atom  10C    basis set group =>   2
Atom  11O    basis set group =>   3
Atom  12O    basis set group =>   3
---------------------------------
AUXILIARY/J BASIS SET INFORMATION
---------------------------------
There are 3 groups of distinct atoms

 Group   1 Type Mo  : 11s5p5d3f3g contracted to 8s5p5d2f3g pattern {41111111/11111/11111/21/111}
 Group   2 Type C   : 12s5p4d2f1g contracted to 6s4p3d1f1g pattern {711111/2111/211/2/1}
 Group   3 Type O   : 12s5p4d2f1g contracted to 6s4p3d1f1g pattern {711111/2111/211/2/1}

Atom   0Mo   basis set group =>   1
Atom   1C    basis set group =>   2
Atom   2C    basis set group =>   2
Atom   3C    basis set group =>   2
Atom   4C    basis set group =>   2
Atom   5O    basis set group =>   3
Atom   6O    basis set group =>   3
Atom   7O    basis set group =>   3
Atom   8O    basis set group =>   3
Atom   9C    basis set group =>   2
Atom  10C    basis set group =>   2
Atom  11O    basis set group =>   3
Atom  12O    basis set group =>   3
-------------------------
ECP PARAMETER INFORMATION
-------------------------

 Group 1, Type Mo ECP Def2-ECP (replacing 28 core electrons, lmax=3)

Atom   0Mo   ECP group =>   1



           ************************************************************
           *        Program running with 8 parallel MPI-processes     *
           *              working on a common directory               *
           ************************************************************
------------------------------------------------------------------------------
                           ORCA GTO INTEGRAL CALCULATION
                           -- RI-GTO INTEGRALS CHOSEN --
------------------------------------------------------------------------------
------------------------------------------------------------------------------
                   ___                                                        
                  /   \      - P O W E R E D   B Y -                         
                 /     \                                                     
                 |  |  |   _    _      __       _____    __    __             
                 |  |  |  | |  | |    /  \     |  _  \  |  |  /  |          
                  \  \/   | |  | |   /    \    | | | |  |  | /  /          
                 / \  \   | |__| |  /  /\  \   | |_| |  |  |/  /          
                |  |  |   |  __  | /  /__\  \  |    /   |      \           
                |  |  |   | |  | | |   __   |  |    \   |  |\   \          
                \     /   | |  | | |  |  |  |  | |\  \  |  | \   \       
                 \___/    |_|  |_| |__|  |__|  |_| \__\ |__|  \__/        
                                                                              
                      - O R C A' S   B I G   F R I E N D -                    
                                      &                                       
                       - I N T E G R A L  F E E D E R -                       
                                                                              
 v1 FN, 2020, v2 2021                                                         
------------------------------------------------------------------------------


Reading SHARK input file MoCO6.SHARKINP.tmp ... ok
----------------------
SHARK INTEGRAL PACKAGE
----------------------

Number of atoms                             ...     13
Number of basis functions                   ...    292
Number of shells                            ...    114
Maximum angular momentum                    ...      3
Integral batch strategy                     ... SHARK/LIBINT Hybrid
RI-J (if used) integral strategy            ... SPLIT-RIJ (Revised 2003 algorithm where possible)
Printlevel                                  ...      1
Contraction scheme used                     ... SEGMENTED contraction
Coulomb Range Separation                    ... NOT USED
Exchange Range Separation                   ... NOT USED
Finite Nucleus Model                        ... NOT USED
Auxiliary Coulomb fitting basis             ... AVAILABLE
   # of basis functions in Aux-J            ...    677
   # of shells in Aux-J                     ...    203
   Maximum angular momentum in Aux-J        ...      4
Auxiliary J/K fitting basis                 ... NOT available
Auxiliary Correlation fitting basis         ... NOT available
Auxiliary 'external' fitting basis          ... NOT available
Integral threshold                          ...     2.500000e-11
Primitive cut-off                           ...     2.500000e-12
Primitive pair pre-selection threshold      ...     2.500000e-12

Calculating pre-screening integrals         ... done (  0.0 sec) Dimension = 114
Organizing shell pair data                  ... done (  0.1 sec)
Shell pair information
Total number of shell pairs                 ...      6555
Shell pairs after pre-screening             ...      5970
Total number of primitive shell pairs       ...     19086
Primitive shell pairs kept                  ...     13287
          la=0 lb=0:   1254 shell pairs
          la=1 lb=0:   1640 shell pairs
          la=1 lb=1:    568 shell pairs
          la=2 lb=0:   1228 shell pairs
          la=2 lb=1:    836 shell pairs
          la=2 lb=2:    330 shell pairs
          la=3 lb=0:     53 shell pairs
          la=3 lb=1:     34 shell pairs
          la=3 lb=2:     26 shell pairs
          la=3 lb=3:      1 shell pairs

Calculating one electron integrals          ... done (  0.0 sec)
Calculating ECP integrals                   ... done (  0.5 sec)
Calculating RI/J V-Matrix + Cholesky decomp.... done (  0.1 sec)
Calculating Nuclear repulsion               ... done (  0.0 sec) ENN=    743.232381127259 Eh

SHARK setup successfully completed in   0.8 seconds

Maximum memory used throughout the entire GTOINT-calculation: 17.9 MB


           ************************************************************
           *        Program running with 8 parallel MPI-processes     *
           *              working on a common directory               *
           ************************************************************
-------------------------------------------------------------------------------
                                 ORCA SCF
-------------------------------------------------------------------------------

------------
SCF SETTINGS
------------
Hamiltonian:
 Density Functional     Method          .... DFT(GTOs)
 Exchange Functional    Exchange        .... B88
   X-Alpha parameter    XAlpha          ....  0.666667
   Becke's b parameter  XBeta           ....  0.004200
 Correlation Functional Correlation     .... LYP
 LDA part of GGA corr.  LDAOpt          .... VWN-5
 Gradients option       PostSCFGGA      .... off
 Hybrid DFT is turned on
   Fraction HF Exchange ScalHFX         ....  0.200000
   Scaling of DF-GGA-X  ScalDFX         ....  0.720000
   Scaling of DF-GGA-C  ScalDFC         ....  0.810000
   Scaling of DF-LDA-C  ScalLDAC        ....  1.000000
   Perturbative correction              ....  0.000000
   Density functional embedding theory  .... OFF
   NL short-range parameter             ....  4.800000
 RI-approximation to the Coulomb term is turned on
   Number of AuxJ basis functions       .... 677
   RIJ-COSX (HFX calculated with COS-X)).... on


General Settings:
 Integral files         IntName         .... MoCO6
 Hartree-Fock type      HFTyp           .... RHF
 Total Charge           Charge          ....    0
 Multiplicity           Mult            ....    1
 Number of Electrons    NEL             ....   98
 Basis Dimension        Dim             ....  292
 Nuclear Repulsion      ENuc            ....    743.2323811273 Eh

Convergence Acceleration:
 DIIS                   CNVDIIS         .... on
   Start iteration      DIISMaxIt       ....    12
   Startup error        DIISStart       ....  0.200000
   # of expansion vecs  DIISMaxEq       ....     5
   Bias factor          DIISBfac        ....   1.050
   Max. coefficient     DIISMaxC        ....  10.000
 Trust-Rad. Augm. Hess. CNVTRAH         .... auto
   Auto Start mean grad. ratio tolernc. ....  1.125000
   Auto Start start iteration           ....    20
   Auto Start num. interpolation iter.  ....    10
   Max. Number of Micro iterations      ....    16
   Max. Number of Macro iterations      .... Maxiter - #DIIS iter
   Number of Davidson start vectors     ....     2
   Converg. threshold I  (grad. norm)   ....   1.000e-05
   Converg. threshold II (energy diff.) ....   1.000e-08
   Grad. Scal. Fac. for Micro threshold ....   0.100
   Minimum threshold for Micro iter.    ....   0.010
   NR start threshold (gradient norm)   ....   0.001
   Initial trust radius                 ....   0.400
   Minimum AH scaling param. (alpha)    ....   1.000
   Maximum AH scaling param. (alpha)    .... 1000.000
   Orbital update algorithm             .... Taylor
   White noise on init. David. guess    .... on
   Maximum white noise                  ....   0.010
   Quad. conv. algorithm                .... NR
 SOSCF                  CNVSOSCF        .... off
 Level Shifting         CNVShift        .... on
   Level shift para.    LevelShift      ....    0.2500
   Turn off err/grad.   ShiftErr        ....    0.0010
 Zerner damping         CNVZerner       .... off
 Static damping         CNVDamp         .... on
   Fraction old density DampFac         ....    0.7000
   Max. Damping (<1)    DampMax         ....    0.9800
   Min. Damping (>=0)   DampMin         ....    0.0000
   Turn off err/grad.   DampErr         ....    0.1000
 Fernandez-Rico         CNVRico         .... off

SCF Procedure:
 Maximum # iterations   MaxIter         ....   300
 SCF integral mode      SCFMode         .... Direct
   Integral package                     .... SHARK and LIBINT hybrid scheme
 Reset frequency        DirectResetFreq ....    20
 Integral Threshold     Thresh          ....  2.500e-11 Eh
 Primitive CutOff       TCut            ....  2.500e-12 Eh

Convergence Tolerance:
 Convergence Check Mode ConvCheckMode   .... Total+1el-Energy
 Convergence forced     ConvForced      .... 0
 Energy Change          TolE            ....  1.000e-08 Eh
 1-El. energy change                    ....  1.000e-05 Eh
 DIIS Error             TolErr          ....  5.000e-07


Diagonalization of the overlap matrix:
Smallest eigenvalue                        ... 2.585e-05
Time for diagonalization                   ...    0.018 sec
Threshold for overlap eigenvalues          ... 1.000e-08
Number of eigenvalues below threshold      ... 0
Time for construction of square roots      ...    0.053 sec
Total time needed                          ...    0.072 sec

Time for model grid setup =    0.160 sec

------------------------------
INITIAL GUESS: MODEL POTENTIAL
------------------------------
Loading Hartree-Fock densities                     ... done
  calling C:\orca_5_0_4\orca MoCO6_atom42.inp > MoCO6_atom42.out in order to generate an atomic fitting density for atom 0 (Mo with ECP) on-the-fly... 
    atom 0 (Mo), assumed electronic state with S=5: 1s2 2s2 2p6 3s2 3p6 4s2 3d10 4p6 5s2 4d4           ... done
Calculating cut-offs                               ... done
Initializing the effective Hamiltonian             ... done
Setting up the integral package (SHARK)            ... done
Starting the Coulomb interaction                   ... done (   0.1 sec)
Reading the grid                                   ... done
Mapping shells                                     ... done
Starting the XC term evaluation                    ... done (   0.1 sec)
  promolecular density results
     # of electrons  =    126.003026260
     EX              =   -199.597069392
     EC              =     -5.069669578
     EX+EC           =   -204.666738970
Transforming the Hamiltonian                       ... done (   0.0 sec)
Diagonalizing the Hamiltonian                      ... done (   0.0 sec)
Back transforming the eigenvectors                 ... done (   0.0 sec)
Now organizing SCF variables                       ... done
                      ------------------
                      INITIAL GUESS DONE (   1.6 sec)
                      ------------------
-------------------
DFT GRID GENERATION
-------------------

General Integration Accuracy     IntAcc      ... 4.388
Radial Grid Type                 RadialGrid  ... OptM3 with GC (2021)
Angular Grid (max. ang.)         AngularGrid ... 4 (Lebedev-302)
Angular grid pruning method      GridPruning ... 4 (adaptive)
Weight generation scheme         WeightScheme... Becke
Basis function cutoff            BFCut       ... 1.0000e-11
Integration weight cutoff        WCut        ... 1.0000e-14
Angular grids for H and He will be reduced by one unit
Partially contracted basis set               ... off
Rotationally invariant grid construction     ... off

Total number of grid points                  ...    85636
Total number of batches                      ...     1344
Average number of points per batch           ...       63
Average number of grid points per atom       ...     6587
Time for grid setup =    0.690 sec

--------------------
COSX GRID GENERATION
--------------------

GRIDX 1
-------
General Integration Accuracy     IntAcc      ... 3.816
Radial Grid Type                 RadialGrid  ... OptM3 with GC (2021)
Angular Grid (max. ang.)         AngularGrid ... 1 (Lebedev-50)
Angular grid pruning method      GridPruning ... 4 (adaptive)
Weight generation scheme         WeightScheme... Becke
Basis function cutoff            BFCut       ... 1.0000e-11
Integration weight cutoff        WCut        ... 1.0000e-14
Angular grids for H and He will be reduced by one unit
Partially contracted basis set               ... on
Rotationally invariant grid construction     ... off

Total number of grid points                  ...    10538
Total number of batches                      ...      173
Average number of points per batch           ...       60
Average number of grid points per atom       ...      811
UseSFitting                                  ... on

GRIDX 2
-------
General Integration Accuracy     IntAcc      ... 4.020
Radial Grid Type                 RadialGrid  ... OptM3 with GC (2021)
Angular Grid (max. ang.)         AngularGrid ... 2 (Lebedev-110)
Angular grid pruning method      GridPruning ... 4 (adaptive)
Weight generation scheme         WeightScheme... Becke
Basis function cutoff            BFCut       ... 1.0000e-11
Integration weight cutoff        WCut        ... 1.0000e-14
Angular grids for H and He will be reduced by one unit
Partially contracted basis set               ... on
Rotationally invariant grid construction     ... off

Total number of grid points                  ...    27084
Total number of batches                      ...      428
Average number of points per batch           ...       63
Average number of grid points per atom       ...     2083
UseSFitting                                  ... on

GRIDX 3
-------
General Integration Accuracy     IntAcc      ... 4.338
Radial Grid Type                 RadialGrid  ... OptM3 with GC (2021)
Angular Grid (max. ang.)         AngularGrid ... 3 (Lebedev-194)
Angular grid pruning method      GridPruning ... 4 (adaptive)
Weight generation scheme         WeightScheme... Becke
Basis function cutoff            BFCut       ... 1.0000e-11
Integration weight cutoff        WCut        ... 1.0000e-14
Angular grids for H and He will be reduced by one unit
Partially contracted basis set               ... on
Rotationally invariant grid construction     ... off

Total number of grid points                  ...    58401
Total number of batches                      ...      916
Average number of points per batch           ...       63
Average number of grid points per atom       ...     4492
UseSFitting                                  ... on

Time for X-Grid setup             =    0.950 sec

--------------
SCF ITERATIONS
--------------
ITER       Energy         Delta-E        Max-DP      RMS-DP      [F,P]     Damp
               ***  Starting incremental Fock matrix formation  ***
  0   -744.6248620627   0.000000000000 1.05866265  0.01043241  0.9894457 0.7000
  1   -746.3386861392  -1.713824076550 0.87528083  0.00597818  0.3407948 0.7000
                               ***Turning on DIIS***
  2   -746.6646361833  -0.325950044091 0.53815614  0.00386354  0.1451675 0.7000
  3   -746.8584822309  -0.193846047585 0.83991513  0.00850329  0.0876622 0.0000
  4   -747.3996595047  -0.541177273782 0.05034286  0.00054701  0.1060444 0.7000
  5   -747.4303347603  -0.030675255588 0.16974397  0.00166424  0.0787933 0.0000
  6   -747.4845412422  -0.054206481960 0.04890311  0.00096053  0.0346502 0.0000
  7   -747.4875400152  -0.002998772966 0.04853714  0.00053343  0.0240211 0.0000
  8   -747.4896043199  -0.002064304707 0.02406547  0.00035962  0.0030971 0.0000
  9   -747.4897387511  -0.000134431249 0.00328808  0.00004055  0.0006360 0.0000
               *** Restarting incremental Fock matrix formation ***
                                   *** Resetting DIIS ***
 10   -747.4898690979  -0.000130346795 0.00304028  0.00007635  0.0001494 0.0000
 11   -747.4898685804   0.000000517520 0.00016918  0.00000450  0.0004095 0.0000
 12   -747.4898693812  -0.000000800808 0.00030225  0.00000340  0.0001239 0.0000
 13   -747.4898693464   0.000000034831 0.00016602  0.00000182  0.0001558 0.0000
 14   -747.4898694308  -0.000000084427 0.00004607  0.00000103  0.0000178 0.0000
 15   -747.4898694339  -0.000000003090 0.00009172  0.00000127  0.0000027 0.0000
 16   -747.4898694100   0.000000023953 0.00004704  0.00000068  0.0000018 0.0000
 17   -747.4898694034   0.000000006543 0.00003512  0.00000055  0.0000012 0.0000
                 **** Energy Check signals convergence ****

               *****************************************************
               *                     SUCCESS                       *
               *           SCF CONVERGED AFTER  18 CYCLES          *
               *****************************************************

Old exchange energy                            =    -17.378189104 Eh
New exchange energy                            =    -17.378199632 Eh
Exchange energy change after final integration =     -0.000010528 Eh
Total energy after final integration           =   -747.489879924 Eh
Final COS-X integration done in                =     4.300 sec

----------------
TOTAL SCF ENERGY
----------------

Total Energy       :         -747.48987992 Eh          -20340.23371 eV

Components:
Nuclear Repulsion  :          743.23238113 Eh           20224.38128 eV
Electronic Energy  :        -1490.72226105 Eh          -40564.61499 eV
One Electron Energy:        -2519.98731973 Eh          -68572.34112 eV
Two Electron Energy:         1029.26505868 Eh           28007.72613 eV
Max COSX asymmetry :            0.00004669 Eh               0.00127 eV

Virial components:
Potential Energy   :        -1444.73426833 Eh          -39313.21809 eV
Kinetic Energy     :          697.24438840 Eh           18972.98438 eV
Virial Ratio       :            2.07206296


DFT components:
N(Alpha)           :       49.000141979639 electrons
N(Beta)            :       49.000141979639 electrons
N(Total)           :       98.000283959278 electrons
E(X)               :      -69.534215732686 Eh       
E(C)               :       -4.050356508216 Eh       
E(XC)              :      -73.584572240901 Eh       
DFET-embed. en.    :        0.000000000000 Eh       

---------------
SCF CONVERGENCE
---------------

  Last Energy change         ...    7.5253e-09  Tolerance :   1.0000e-08
  Last MAX-Density change    ...    0.0000e+00  Tolerance :   1.0000e-07
  Last RMS-Density change    ...    0.0000e+00  Tolerance :   5.0000e-09
  Last DIIS Error            ...    1.5535e-07  Tolerance :   5.0000e-07

             **** THE GBW FILE WAS UPDATED (MoCO6.gbw) ****
             **** DENSITY MoCO6.scfp WAS UPDATED ****
             **** ENERGY FILE WAS UPDATED (MoCO6.en.tmp) ****
             **** THE GBW FILE WAS UPDATED (MoCO6.gbw) ****
             **** DENSITY MoCO6.scfp WAS UPDATED ****
----------------
ORBITAL ENERGIES
----------------

  NO   OCC          E(Eh)            E(eV) 
   0   2.0000     -19.245144      -523.6870 
   1   2.0000     -19.245142      -523.6869 
   2   2.0000     -19.245085      -523.6854 
   3   2.0000     -19.245079      -523.6852 
   4   2.0000     -19.245078      -523.6852 
   5   2.0000     -19.245065      -523.6848 
   6   2.0000     -10.319854      -280.8175 
   7   2.0000     -10.319846      -280.8173 
   8   2.0000     -10.319792      -280.8158 
   9   2.0000     -10.319792      -280.8158 
  10   2.0000     -10.319787      -280.8157 
  11   2.0000     -10.319658      -280.8122 
  12   2.0000      -2.574606       -70.0586 
  13   2.0000      -1.571549       -42.7640 
  14   2.0000      -1.571522       -42.7633 
  15   2.0000      -1.571497       -42.7626 
  16   2.0000      -1.158717       -31.5303 
  17   2.0000      -1.158288       -31.5186 
  18   2.0000      -1.158281       -31.5184 
  19   2.0000      -1.158278       -31.5184 
  20   2.0000      -1.158167       -31.5153 
  21   2.0000      -1.158154       -31.5150 
  22   2.0000      -0.593652       -16.1541 
  23   2.0000      -0.576461       -15.6863 
  24   2.0000      -0.576458       -15.6862 
  25   2.0000      -0.574366       -15.6293 
  26   2.0000      -0.574347       -15.6288 
  27   2.0000      -0.574337       -15.6285 
  28   2.0000      -0.502984       -13.6869 
  29   2.0000      -0.494106       -13.4453 
  30   2.0000      -0.494091       -13.4449 
  31   2.0000      -0.494083       -13.4447 
  32   2.0000      -0.489125       -13.3098 
  33   2.0000      -0.489102       -13.3091 
  34   2.0000      -0.489079       -13.3085 
  35   2.0000      -0.483860       -13.1665 
  36   2.0000      -0.483847       -13.1661 
  37   2.0000      -0.483829       -13.1656 
  38   2.0000      -0.479996       -13.0614 
  39   2.0000      -0.479994       -13.0613 
  40   2.0000      -0.479993       -13.0613 
  41   2.0000      -0.467621       -12.7246 
  42   2.0000      -0.467599       -12.7240 
  43   2.0000      -0.422517       -11.4973 
  44   2.0000      -0.422435       -11.4950 
  45   2.0000      -0.422372       -11.4933 
  46   2.0000      -0.241199        -6.5634 
  47   2.0000      -0.241138        -6.5617 
  48   2.0000      -0.241125        -6.5613 
  49   0.0000      -0.069846        -1.9006 
  50   0.0000      -0.069800        -1.8994 
  51   0.0000      -0.069774        -1.8987 
  52   0.0000      -0.046140        -1.2555 
  53   0.0000      -0.046079        -1.2539 
  54   0.0000      -0.045998        -1.2517 
  55   0.0000      -0.006628        -0.1804 
  56   0.0000      -0.006602        -0.1796 
  57   0.0000      -0.006599        -0.1796 
  58   0.0000       0.000721         0.0196 
  59   0.0000       0.011427         0.3109 
  60   0.0000       0.011429         0.3110 
  61   0.0000       0.011436         0.3112 
  62   0.0000       0.023971         0.6523 
  63   0.0000       0.023979         0.6525 
  64   0.0000       0.031477         0.8565 
  65   0.0000       0.031506         0.8573 
  66   0.0000       0.031530         0.8580 
  67   0.0000       0.074387         2.0242 
  68   0.0000       0.074405         2.0247 
  69   0.0000       0.077419         2.1067 
  70   0.0000       0.077449         2.1075 
  71   0.0000       0.077459         2.1078 
  72   0.0000       0.093197         2.5360 
  73   0.0000       0.093221         2.5367 
  74   0.0000       0.093239         2.5372 
  75   0.0000       0.109550         2.9810 
  76   0.0000       0.116155         3.1607 
  77   0.0000       0.116192         3.1617 
  78   0.0000       0.116249         3.1633 
  79   0.0000       0.150333         4.0908 
  80   0.0000       0.157619         4.2890 
  81   0.0000       0.157648         4.2898 
  82   0.0000       0.157652         4.2899 
  83   0.0000       0.166182         4.5220 
  84   0.0000       0.166216         4.5230 
  85   0.0000       0.177547         4.8313 
  86   0.0000       0.177684         4.8350 
  87   0.0000       0.177777         4.8376 
  88   0.0000       0.192873         5.2483 
  89   0.0000       0.240590         6.5468 
  90   0.0000       0.240660         6.5487 
  91   0.0000       0.240675         6.5491 
  92   0.0000       0.260367         7.0849 
  93   0.0000       0.260481         7.0881 
  94   0.0000       0.260561         7.0902 
  95   0.0000       0.268530         7.3071 
  96   0.0000       0.268549         7.3076 
  97   0.0000       0.290125         7.8947 
  98   0.0000       0.290141         7.8951 
  99   0.0000       0.290150         7.8954 
 100   0.0000       0.294030         8.0010 
 101   0.0000       0.294110         8.0032 
 102   0.0000       0.294292         8.0081 
 103   0.0000       0.296770         8.0755 
 104   0.0000       0.341666         9.2972 
 105   0.0000       0.347823         9.4647 
 106   0.0000       0.347862         9.4658 
 107   0.0000       0.371536        10.1100 
 108   0.0000       0.371602        10.1118 
 109   0.0000       0.374441        10.1891 
 110   0.0000       0.374545        10.1919 
 111   0.0000       0.374738        10.1971 
 112   0.0000       0.411689        11.2026 
 113   0.0000       0.411794        11.2055 
 114   0.0000       0.411935        11.2093 
 115   0.0000       0.414958        11.2916 
 116   0.0000       0.449953        12.2438 
 117   0.0000       0.450079        12.2473 
 118   0.0000       0.450233        12.2515 
 119   0.0000       0.455323        12.3900 
 120   0.0000       0.455336        12.3903 
 121   0.0000       0.455350        12.3907 
 122   0.0000       0.460646        12.5348 
 123   0.0000       0.460742        12.5374 
 124   0.0000       0.460795        12.5389 
 125   0.0000       0.463044        12.6001 
 126   0.0000       0.463048        12.6002 
 127   0.0000       0.463055        12.6004 
 128   0.0000       0.467578        12.7234 
 129   0.0000       0.467600        12.7241 
 130   0.0000       0.522097        14.2070 
 131   0.0000       0.522269        14.2117 
 132   0.0000       0.522426        14.2159 
 133   0.0000       0.540735        14.7141 
 134   0.0000       0.548371        14.9219 
 135   0.0000       0.568844        15.4790 
 136   0.0000       0.568851        15.4792 
 137   0.0000       0.568885        15.4802 
 138   0.0000       0.577633        15.7182 
 139   0.0000       0.577691        15.7198 
 140   0.0000       0.577705        15.7202 
 141   0.0000       0.592944        16.1348 
 142   0.0000       0.593107        16.1393 
 143   0.0000       0.593317        16.1450 
 144   0.0000       0.594318        16.1722 
 145   0.0000       0.598606        16.2889 
 146   0.0000       0.598886        16.2965 
 147   0.0000       0.599184        16.3046 
 148   0.0000       0.606007        16.4903 
 149   0.0000       0.606048        16.4914 
 150   0.0000       0.640158        17.4196 
 151   0.0000       0.640167        17.4198 
 152   0.0000       0.640185        17.4203 
 153   0.0000       0.640385        17.4258 
 154   0.0000       0.640533        17.4298 
 155   0.0000       0.645433        17.5631 
 156   0.0000       0.645505        17.5651 
 157   0.0000       0.645524        17.5656 
 158   0.0000       0.647030        17.6066 
 159   0.0000       0.647036        17.6067 
 160   0.0000       0.647038        17.6068 
 161   0.0000       0.732221        19.9247 
 162   0.0000       0.732342        19.9280 
 163   0.0000       0.768501        20.9120 
 164   0.0000       0.768571        20.9139 
 165   0.0000       0.768660        20.9163 
 166   0.0000       0.781227        21.2583 
 167   0.0000       0.876016        23.8376 
 168   0.0000       0.876209        23.8429 
 169   0.0000       0.885564        24.0974 
 170   0.0000       0.885789        24.1035 
 171   0.0000       0.886093        24.1118 
 172   0.0000       0.890953        24.2441 
 173   0.0000       0.890994        24.2452 
 174   0.0000       0.891008        24.2456 
 175   0.0000       0.903199        24.5773 
 176   0.0000       0.903254        24.5788 
 177   0.0000       0.903274        24.5793 
 178   0.0000       0.925524        25.1848 
 179   0.0000       0.925710        25.1898 
 180   0.0000       0.925893        25.1948 
 181   0.0000       0.936719        25.4894 
 182   0.0000       0.957900        26.0658 
 183   0.0000       0.957931        26.0666 
 184   0.0000       0.984914        26.8009 
 185   0.0000       1.004292        27.3282 
 186   0.0000       1.004317        27.3289 
 187   0.0000       1.004345        27.3296 
 188   0.0000       1.066178        29.0122 
 189   0.0000       1.066918        29.0323 
 190   0.0000       1.066929        29.0326 
 191   0.0000       1.116293        30.3759 
 192   0.0000       1.116354        30.3775 
 193   0.0000       1.116376        30.3781 
 194   0.0000       1.210467        32.9385 
 195   0.0000       1.210852        32.9490 
 196   0.0000       1.211192        32.9582 
 197   0.0000       1.345359        36.6091 
 198   0.0000       1.345414        36.6106 
 199   0.0000       1.395756        37.9805 
 200   0.0000       1.451395        39.4945 
 201   0.0000       1.494047        40.6551 
 202   0.0000       1.494145        40.6578 
 203   0.0000       1.494239        40.6603 
 204   0.0000       1.497379        40.7457 
 205   0.0000       1.497395        40.7462 
 206   0.0000       1.498621        40.7796 
 207   0.0000       1.498725        40.7824 
 208   0.0000       1.498899        40.7871 
 209   0.0000       1.500377        40.8273 
 210   0.0000       1.500499        40.8306 
 211   0.0000       1.500653        40.8349 
 212   0.0000       1.507668        41.0257 
 213   0.0000       1.507671        41.0258 
 214   0.0000       1.507713        41.0269 
 215   0.0000       1.530547        41.6483 
 216   0.0000       1.530553        41.6485 
 217   0.0000       1.530635        41.6507 
 218   0.0000       1.553759        42.2799 
 219   0.0000       1.554059        42.2881 
 220   0.0000       1.554330        42.2955 
 221   0.0000       1.624406        44.2023 
 222   0.0000       1.624637        44.2086 
 223   0.0000       1.624832        44.2139 
 224   0.0000       1.743021        47.4300 
 225   0.0000       1.754606        47.7453 
 226   0.0000       1.754669        47.7470 
 227   0.0000       1.754781        47.7500 
 228   0.0000       1.765982        48.0548 
 229   0.0000       1.765986        48.0549 
 230   0.0000       1.786051        48.6009 
 231   0.0000       1.786219        48.6055 
 232   0.0000       1.786351        48.6091 
 233   0.0000       1.830858        49.8202 
 234   0.0000       1.886896        51.3450 
 235   0.0000       1.886901        51.3452 
 236   0.0000       1.886927        51.3459 
 237   0.0000       1.913970        52.0818 
 238   0.0000       1.914182        52.0875 
 239   0.0000       1.914394        52.0933 
 240   0.0000       1.928553        52.4786 
 241   0.0000       1.928806        52.4855 
 242   0.0000       1.929039        52.4918 
 243   0.0000       1.942453        52.8568 
 244   0.0000       1.942626        52.8615 
 245   0.0000       1.942867        52.8681 
 246   0.0000       1.994078        54.2616 
 247   0.0000       1.994094        54.2620 
 248   0.0000       2.010636        54.7122 
 249   0.0000       2.016628        54.8752 
 250   0.0000       2.017286        54.8931 
 251   0.0000       2.018010        54.9128 
 252   0.0000       2.116174        57.5840 
 253   0.0000       2.116185        57.5843 
 254   0.0000       2.485016        67.6207 
 255   0.0000       2.603137        70.8350 
 256   0.0000       2.603149        70.8353 
 257   0.0000       2.776411        75.5500 
 258   0.0000       2.782383        75.7125 
 259   0.0000       2.782479        75.7151 
 260   0.0000       2.782577        75.7178 
 261   0.0000       2.791151        75.9511 
 262   0.0000       2.791257        75.9540 
 263   0.0000       2.791361        75.9568 
 264   0.0000       2.807887        76.4065 
 265   0.0000       2.808124        76.4129 
 266   0.0000       2.808355        76.4192 
 267   0.0000       2.816177        76.6321 
 268   0.0000       2.816188        76.6324 
 269   0.0000       2.830046        77.0095 
 270   0.0000       2.830061        77.0099 
 271   0.0000       2.866058        77.9894 
 272   0.0000       2.908875        79.1545 
 273   0.0000       3.170662        86.2781 
 274   0.0000       3.170664        86.2782 
 275   0.0000       3.170675        86.2785 
 276   0.0000       3.193244        86.8926 
 277   0.0000       3.193265        86.8932 
 278   0.0000       3.193301        86.8941 
 279   0.0000       3.229983        87.8923 
 280   0.0000       3.230086        87.8951 
 281   0.0000       3.230219        87.8987 
 282   0.0000       3.231760        87.9406 
 283   0.0000       3.231847        87.9430 
 284   0.0000       3.231920        87.9450 
 285   0.0000       3.787662       103.0675 
 286   0.0000       3.797964       103.3478 
 287   0.0000       3.797968       103.3480 
 288   0.0000       3.825018       104.0840 
 289   0.0000       3.825052       104.0850 
 290   0.0000       3.825099       104.0862 
 291   0.0000      39.712367      1080.6284 

                    ********************************
                    * MULLIKEN POPULATION ANALYSIS *
                    ********************************

-----------------------
MULLIKEN ATOMIC CHARGES
-----------------------
   0 Mo:   -1.863494
   1 C :    0.615570
   2 C :    0.615309
   3 C :    0.615234
   4 C :    0.615599
   5 O :   -0.305144
   6 O :   -0.304477
   7 O :   -0.305131
   8 O :   -0.304334
   9 C :    0.615639
  10 C :    0.615600
  11 O :   -0.305218
  12 O :   -0.305154
Sum of atomic charges:   -0.0000000

--------------------------------
MULLIKEN REDUCED ORBITAL CHARGES
--------------------------------
  0 Mos       :     2.944276  s :     2.944276
      pz      :     2.304585  p :     6.913659
      px      :     2.304465
      py      :     2.304609
      dz2     :     0.890725  d :     5.983198
      dxz     :     1.408151
      dyz     :     1.392241
      dx2y2   :     0.883181
      dxy     :     1.408900
      f0      :     0.006757  f :     0.022361
      f+1     :     0.002913
      f-1     :     0.003019
      f+2     :     0.000687
      f-2     :     0.000017
      f+3     :     0.004526
      f-3     :     0.004442
  1 C s       :     3.196485  s :     3.196485
      pz      :     0.581641  p :     2.118458
      px      :     0.578697
      py      :     0.958120
      dz2     :     0.006042  d :     0.069487
      dxz     :    -0.001078
      dyz     :     0.019321
      dx2y2   :     0.026089
      dxy     :     0.019113
  2 C s       :     3.196773  s :     3.196773
      pz      :     0.578805  p :     2.118123
      px      :     0.960659
      py      :     0.578658
      dz2     :     0.006092  d :     0.069795
      dxz     :     0.019271
      dyz     :    -0.001293
      dx2y2   :     0.026481
      dxy     :     0.019244
  3 C s       :     3.196809  s :     3.196809
      pz      :     0.578782  p :     2.118145
      px      :     0.960727
      py      :     0.578636
      dz2     :     0.006089  d :     0.069812
      dxz     :     0.019280
      dyz     :    -0.001293
      dx2y2   :     0.026480
      dxy     :     0.019256
  4 C s       :     3.196442  s :     3.196442
      pz      :     0.581634  p :     2.118467
      px      :     0.578694
      py      :     0.958140
      dz2     :     0.006045  d :     0.069492
      dxz     :    -0.001078
      dyz     :     0.019328
      dx2y2   :     0.026086
      dxy     :     0.019111
  5 O s       :     3.881359  s :     3.881359
      pz      :     1.520394  p :     4.356041
      px      :     1.522130
      py      :     1.313517
      dz2     :     0.004904  d :     0.067744
      dxz     :     0.000458
      dyz     :     0.024436
      dx2y2   :     0.013356
      dxy     :     0.024590
  6 O s       :     3.880591  s :     3.880591
      pz      :     1.522092  p :     4.356135
      px      :     1.311891
      py      :     1.522152
      dz2     :     0.004549  d :     0.067750
      dxz     :     0.024771
      dyz     :     0.000269
      dx2y2   :     0.013382
      dxy     :     0.024779
  7 O s       :     3.881361  s :     3.881361
      pz      :     1.520376  p :     4.356022
      px      :     1.522117
      py      :     1.313529
      dz2     :     0.004904  d :     0.067747
      dxz     :     0.000458
      dyz     :     0.024436
      dx2y2   :     0.013358
      dxy     :     0.024591
  8 O s       :     3.880524  s :     3.880524
      pz      :     1.522036  p :     4.356048
      px      :     1.311921
      py      :     1.522091
      dz2     :     0.004552  d :     0.067762
      dxz     :     0.024772
      dyz     :     0.000269
      dx2y2   :     0.013389
      dxy     :     0.024780
  9 C s       :     3.196426  s :     3.196426
      pz      :     0.957811  p :     2.118471
      px      :     0.578836
      py      :     0.581824
      dz2     :     0.036164  d :     0.069464
      dxz     :     0.019096
      dyz     :     0.019330
      dx2y2   :    -0.004073
      dxy     :    -0.001054
 10 C s       :     3.196447  s :     3.196447
      pz      :     0.957819  p :     2.118477
      px      :     0.578826
      py      :     0.581832
      dz2     :     0.036167  d :     0.069476
      dxz     :     0.019100
      dyz     :     0.019334
      dx2y2   :    -0.004071
      dxy     :    -0.001053
 11 O s       :     3.881432  s :     3.881432
      pz      :     1.313679  p :     4.356042
      px      :     1.522049
      py      :     1.520313
      dz2     :     0.017972  d :     0.067744
      dxz     :     0.024566
      dyz     :     0.024413
      dx2y2   :     0.000318
      dxy     :     0.000476
 12 O s       :     3.881392  s :     3.881392
      pz      :     1.313702  p :     4.356014
      px      :     1.522029
      py      :     1.520284
      dz2     :     0.017976  d :     0.067748
      dxz     :     0.024565
      dyz     :     0.024411
      dx2y2   :     0.000319
      dxy     :     0.000477


                     *******************************
                     * LOEWDIN POPULATION ANALYSIS *
                     *******************************

----------------------
LOEWDIN ATOMIC CHARGES
----------------------
   0 Mo:   -0.181053
   1 C :    0.125804
   2 C :    0.125825
   3 C :    0.125825
   4 C :    0.125804
   5 O :   -0.095650
   6 O :   -0.095682
   7 O :   -0.095625
   8 O :   -0.095588
   9 C :    0.125804
  10 C :    0.125805
  11 O :   -0.095652
  12 O :   -0.095618

-------------------------------
LOEWDIN REDUCED ORBITAL CHARGES
-------------------------------
  0 Mos       :     1.998543  s :     1.998543
      pz      :     2.320419  p :     6.961383
      px      :     2.320478
      py      :     2.320487
      dz2     :     0.808504  d :     5.174476
      dxz     :     1.191793
      dyz     :     1.179905
      dx2y2   :     0.802047
      dxy     :     1.192228
      f0      :     0.014306  f :     0.046650
      f+1     :     0.006027
      f-1     :     0.006251
      f+2     :     0.001226
      f-2     :     0.000028
      f+3     :     0.009497
      f-3     :     0.009316
  1 C s       :     2.991441  s :     2.991441
      pz      :     0.589887  p :     2.257671
      px      :     0.585981
      py      :     1.081804
      dz2     :     0.067868  d :     0.625083
      dxz     :     0.011966
      dyz     :     0.188410
      dx2y2   :     0.169179
      dxy     :     0.187661
  2 C s       :     2.991420  s :     2.991420
      pz      :     0.586144  p :     2.257620
      px      :     1.085480
      py      :     0.585995
      dz2     :     0.066175  d :     0.625135
      dxz     :     0.189019
      dyz     :     0.010753
      dx2y2   :     0.170195
      dxy     :     0.188993
  3 C s       :     2.991408  s :     2.991408
      pz      :     0.586141  p :     2.257658
      px      :     1.085525
      py      :     0.585991
      dz2     :     0.066172  d :     0.625109
      dxz     :     0.189009
      dyz     :     0.010752
      dx2y2   :     0.170188
      dxy     :     0.188988
  4 C s       :     2.991437  s :     2.991437
      pz      :     0.589881  p :     2.257682
      px      :     0.585986
      py      :     1.081815
      dz2     :     0.067867  d :     0.625077
      dxz     :     0.011966
      dyz     :     0.188413
      dx2y2   :     0.169177
      dxy     :     0.187654
  5 O s       :     3.487474  s :     3.487474
      pz      :     1.412745  p :     4.404824
      px      :     1.411470
      py      :     1.580609
      dz2     :     0.029549  d :     0.203352
      dxz     :     0.000348
      dyz     :     0.043248
      dx2y2   :     0.088764
      dxy     :     0.041443
  6 O s       :     3.487486  s :     3.487486
      pz      :     1.411531  p :     4.404858
      px      :     1.581845
      py      :     1.411481
      dz2     :     0.029943  d :     0.203338
      dxz     :     0.041824
      dyz     :     0.000039
      dx2y2   :     0.089773
      dxy     :     0.041759
  7 O s       :     3.487460  s :     3.487460
      pz      :     1.412726  p :     4.404812
      px      :     1.411460
      py      :     1.580626
      dz2     :     0.029550  d :     0.203352
      dxz     :     0.000348
      dyz     :     0.043247
      dx2y2   :     0.088764
      dxy     :     0.041444
  8 O s       :     3.487434  s :     3.487434
      pz      :     1.411479  p :     4.404813
      px      :     1.581909
      py      :     1.411426
      dz2     :     0.029944  d :     0.203341
      dxz     :     0.041823
      dyz     :     0.000039
      dx2y2   :     0.089776
      dxy     :     0.041758
  9 C s       :     2.991444  s :     2.991444
      pz      :     1.081431  p :     2.257671
      px      :     0.586164
      py      :     0.590075
      dz2     :     0.221439  d :     0.625081
      dxz     :     0.187579
      dyz     :     0.188374
      dx2y2   :     0.015614
      dxy     :     0.012076
 10 C s       :     2.991440  s :     2.991440
      pz      :     1.081430  p :     2.257684
      px      :     0.586160
      py      :     0.590094
      dz2     :     0.221431  d :     0.625070
      dxz     :     0.187570
      dyz     :     0.188371
      dx2y2   :     0.015617
      dxy     :     0.012081
 11 O s       :     3.487476  s :     3.487476
      pz      :     1.580482  p :     4.404824
      px      :     1.411533
      py      :     1.412809
      dz2     :     0.117783  d :     0.203352
      dxz     :     0.041497
      dyz     :     0.043307
      dx2y2   :     0.000387
      dxy     :     0.000379
 12 O s       :     3.487457  s :     3.487457
      pz      :     1.580499  p :     4.404808
      px      :     1.411512
      py      :     1.412796
      dz2     :     0.117776  d :     0.203353
      dxz     :     0.041494
      dyz     :     0.043314
      dx2y2   :     0.000388
      dxy     :     0.000380


                      *****************************
                      * MAYER POPULATION ANALYSIS *
                      *****************************

  NA   - Mulliken gross atomic population
  ZA   - Total nuclear charge
  QA   - Mulliken gross atomic charge
  VA   - Mayer's total valence
  BVA  - Mayer's bonded valence
  FA   - Mayer's free valence

  ATOM       NA         ZA         QA         VA         BVA        FA
  0 Mo    15.8635    14.0000    -1.8635     7.3457     7.3457    -0.0000
  1 C      5.3844     6.0000     0.6156     3.4101     3.4101    -0.0000
  2 C      5.3847     6.0000     0.6153     3.4145     3.4145    -0.0000
  3 C      5.3848     6.0000     0.6152     3.4144     3.4144    -0.0000
  4 C      5.3844     6.0000     0.6156     3.4101     3.4101     0.0000
  5 O      8.3051     8.0000    -0.3051     2.5639     2.5639     0.0000
  6 O      8.3045     8.0000    -0.3045     2.5647     2.5647    -0.0000
  7 O      8.3051     8.0000    -0.3051     2.5640     2.5640     0.0000
  8 O      8.3043     8.0000    -0.3043     2.5650     2.5650    -0.0000
  9 C      5.3844     6.0000     0.6156     3.4099     3.4099    -0.0000
 10 C      5.3844     6.0000     0.6156     3.4099     3.4099    -0.0000
 11 O      8.3052     8.0000    -0.3052     2.5639     2.5639    -0.0000
 12 O      8.3052     8.0000    -0.3052     2.5640     2.5640    -0.0000

  Mayer bond orders larger than 0.100000
B(  0-Mo,  1-C ) :   1.0795 B(  0-Mo,  2-C ) :   1.0807 B(  0-Mo,  3-C ) :   1.0804 
B(  0-Mo,  4-C ) :   1.0794 B(  0-Mo,  5-O ) :   0.1446 B(  0-Mo,  6-O ) :   0.1442 
B(  0-Mo,  7-O ) :   0.1446 B(  0-Mo,  8-O ) :   0.1442 B(  0-Mo,  9-C ) :   1.0794 
B(  0-Mo, 10-C ) :   1.0793 B(  0-Mo, 11-O ) :   0.1446 B(  0-Mo, 12-O ) :   0.1446 
B(  1-C ,  5-O ) :   2.3237 B(  2-C ,  6-O ) :   2.3250 B(  3-C ,  8-O ) :   2.3253 
B(  4-C ,  7-O ) :   2.3238 B(  9-C , 11-O ) :   2.3236 B( 10-C , 12-O ) :   2.3238 


-------
TIMINGS
-------

Total SCF time: 0 days 0 hours 0 min 48 sec 

Total time                  ....      48.074 sec
Sum of individual times     ....      47.323 sec  ( 98.4%)

Fock matrix formation       ....      42.485 sec  ( 88.4%)
  Split-RI-J                ....       3.417 sec  (  8.0% of F)
  Chain of spheres X        ....      29.120 sec  ( 68.5% of F)
  XC integration            ....       8.761 sec  ( 20.6% of F)
    Basis function eval.    ....       1.558 sec  ( 17.8% of XC)
    Density eval.           ....       3.847 sec  ( 43.9% of XC)
    XC-Functional eval.     ....       0.184 sec  (  2.1% of XC)
    XC-Potential eval.      ....       1.803 sec  ( 20.6% of XC)
Diagonalization             ....       0.948 sec  (  2.0%)
Density matrix formation    ....       0.027 sec  (  0.1%)
Population analysis         ....       0.083 sec  (  0.2%)
Initial guess               ....       1.394 sec  (  2.9%)
Orbital Transformation      ....       0.000 sec  (  0.0%)
Orbital Orthonormalization  ....       0.000 sec  (  0.0%)
DIIS solution               ....       0.586 sec  (  1.2%)
Grid generation             ....       1.800 sec  (  3.7%)

Maximum memory used throughout the entire SCF-calculation: 76.5 MB

-------------------------   --------------------
FINAL SINGLE POINT ENERGY      -747.489879924185
-------------------------   --------------------



           ************************************************************
           *        Program running with 8 parallel MPI-processes     *
           *              working on a common directory               *
           ************************************************************
------------------------------------------------------------------------------
                         ORCA SCF GRADIENT CALCULATION
------------------------------------------------------------------------------

 ... reading COSX grid (gridx3)
Gradient of the Kohn-Sham DFT energy:
Kohn-Sham wavefunction type      ... RKS
Hartree-Fock exchange scaling    ...    0.200
Number of operators              ...    1
Number of atoms                  ...   13
Basis set dimensions             ...  292
Integral neglect threshold       ... 2.5e-11
Integral primitive cutoff        ... 2.5e-12
SHARK Integral package           ... ON

Nuc. rep. gradient       (SHARK) ... done (  0.0 sec)
HCore & Overlap gradient (SHARK) ... done (  0.1 sec)
ECP gradient             (SHARK) ... done (  2.1 sec)
RI-J gradient            (SHARK) ... done (  0.8 sec)
COSX-gradient                    ... done (  5.6 sec)
Exchange-correlation gradient    ... done

------------------
CARTESIAN GRADIENT
------------------

   1   Mo  :    0.000004221    0.000001073   -0.000000308
   2   C   :    0.000588835    0.058014007    0.005125978
   3   C   :    0.058277503   -0.000648173    0.001134804
   4   C   :   -0.058532077    0.000663738   -0.001137863
   5   C   :   -0.000599892   -0.058082130   -0.005131677
   6   O   :   -0.000380786   -0.038286657   -0.003390294
   7   O   :   -0.038316507    0.000442720   -0.000771718
   8   O   :    0.000385812    0.038355283    0.003396450
   9   O   :    0.038572906   -0.000452998    0.000775803
  10   C   :    0.001266198    0.005309796   -0.057999534
  11   C   :   -0.001267001   -0.005334010    0.058091088
  12   O   :   -0.000816873   -0.003457132    0.038256607
  13   O   :    0.000817131    0.003473644   -0.038349861

Difference to translation invariance:
           :   -0.0000005299   -0.0000008397   -0.0000005256

Difference to rotation invariance:
           :    0.0004777491    0.0000972525    0.0000805812

Norm of the cartesian gradient     ...    0.1711553075
RMS gradient                       ...    0.0274067834
MAX gradient                       ...    0.0585320768

-------
TIMINGS
-------

Total SCF gradient time            ...       12.828 sec

One electron gradient       ....       2.242 sec  ( 17.5%)
RI-J Coulomb gradient       ....       0.812 sec  (  6.3%)
COSX gradient               ....       5.609 sec  ( 43.7%)
XC gradient                 ....       3.227 sec  ( 25.2%)

Maximum memory used throughout the entire SCFGRAD-calculation: 49.5 MB
------------------------------------------------------------------------------
                         ORCA GEOMETRY RELAXATION STEP
------------------------------------------------------------------------------

Reading the OPT-File                    .... done
Getting information on internals        .... done
Copying old internal coords+grads       .... done
Making the new internal coordinates     .... (new redundants).... done
Validating the new internal coordinates .... (new redundants).... done
Calculating the B-matrix                .... done
Calculating the G,G- and P matrices     .... done
Transforming gradient to internals      .... done
Projecting the internal gradient        .... done
Number of atoms                         ....  13
Number of internal coordinates          ....  36
Current Energy                          ....  -747.489879924 Eh
Current gradient norm                   ....     0.171155308 Eh/bohr
Maximum allowed component of the step   ....  0.300
Current trust radius                    ....  0.300
Evaluating the initial hessian          ....  (Almloef) done
Projecting the Hessian                  .... done
Forming the augmented Hessian           .... done
Diagonalizing the augmented Hessian     .... done
Last element of RFO vector              ....  0.990757781
Lowest eigenvalues of augmented Hessian:
 -0.011905652  0.389782024  0.389810056  0.389830750  0.389848566
Length of the computed step             ....  0.136908321
The final length of the internal step   ....  0.136908321
Converting the step to cartesian space:
 Initial RMS(Int)=    0.0228180535
Transforming coordinates:
 Iter   0:  RMS(Cart)=    0.0214647766 RMS(Int)=    0.0228180514
 Iter   1:  RMS(Cart)=    0.0000024152 RMS(Int)=    0.0000020849
 Iter   2:  RMS(Cart)=    0.0000008392 RMS(Int)=    0.0000006406
 Iter   3:  RMS(Cart)=    0.0000004114 RMS(Int)=    0.0000003235
 Iter   4:  RMS(Cart)=    0.0000002079 RMS(Int)=    0.0000001633
 Iter   5:  RMS(Cart)=    0.0000001050 RMS(Int)=    0.0000000825
 Iter   6:  RMS(Cart)=    0.0000000530 RMS(Int)=    0.0000000416
done
Storing new coordinates                 .... done

                                .--------------------.
          ----------------------|Geometry convergence|-------------------------
          Item                value                   Tolerance       Converged
          ---------------------------------------------------------------------
          RMS gradient        0.0176745403            0.0001000000      NO
          MAX gradient        0.0385834065            0.0003000000      NO
          RMS step            0.0228180535            0.0020000000      NO
          MAX step            0.0497000110            0.0040000000      NO
          ........................................................
          Max(Bonds)      0.0263      Max(Angles)    0.01
          Max(Dihed)        0.00      Max(Improp)    0.00
          ---------------------------------------------------------------------

The optimization has not yet converged - more geometry cycles are needed


    ---------------------------------------------------------------------------
                         Redundant Internal Coordinates
                            (Angstroem and degrees)

        Definition                    Value    dE/dq     Step     New-Value
    ----------------------------------------------------------------------------
     1. B(C   1,Mo  0)                2.1484  0.019805 -0.0261    2.1223   
     2. B(C   2,Mo  0)                2.1484  0.019965 -0.0263    2.1221   
     3. B(C   3,Mo  0)                2.1484  0.019963 -0.0263    2.1221   
     4. B(C   4,Mo  0)                2.1484  0.019804 -0.0261    2.1223   
     5. B(O   5,C   1)                1.1280 -0.038438  0.0138    1.1418   
     6. B(O   6,C   2)                1.1280 -0.038327  0.0137    1.1418   
     7. B(O   7,C   4)                1.1280 -0.038507  0.0138    1.1418   
     8. B(O   8,C   3)                1.1279 -0.038583  0.0138    1.1418   
     9. B(C   9,Mo  0)                2.1484  0.019835 -0.0261    2.1223   
    10. B(C  10,Mo  0)                2.1484  0.019834 -0.0261    2.1223   
    11. B(O  11,C   9)                1.1280 -0.038421  0.0138    1.1418   
    12. B(O  12,C  10)                1.1280 -0.038515  0.0138    1.1418   
    13. A(C   3,Mo  0,C   9)           90.02  0.000075   -0.01     90.01   
    14. A(C   2,Mo  0,C   9)           89.98 -0.000074    0.01     89.99   
    15. A(C   1,Mo  0,C  10)           90.08  0.000111   -0.01     90.06   
    16. A(C   4,Mo  0,C  10)           89.92 -0.000113    0.01     89.94   
    17. A(C   4,Mo  0,C   9)           90.07  0.000102   -0.01     90.06   
    18. A(C   2,Mo  0,C  10)           90.02  0.000075   -0.01     90.01   
    19. A(C   3,Mo  0,C  10)           89.98 -0.000076    0.01     89.99   
    20. A(C   3,Mo  0,C   4)           89.99 -0.000038    0.00     90.00   
    21. A(C   1,Mo  0,C   2)           89.99 -0.000038    0.00     89.99   
    22. A(C   1,Mo  0,C   3)           90.01  0.000030   -0.00     90.00   
    23. A(C   2,Mo  0,C   4)           90.02  0.000046   -0.01     90.01   
    24. A(C   1,Mo  0,C   9)           89.93 -0.000100    0.01     89.94   
    25. L(Mo  0,C   1,O   5,C   9, 2) 180.01  0.000004   -0.00    180.01   
    26. L(Mo  0,C   1,O   5,C   9, 1) 179.97 -0.000001    0.00    179.97   
    27. L(Mo  0,C   2,O   6,C   9, 1) 179.99 -0.000013    0.00    179.99   
    28. L(Mo  0,C   2,O   6,C   9, 2) 179.99 -0.000003    0.00    179.99   
    29. L(Mo  0,C   3,O   8,C  10, 2) 180.00  0.000002   -0.00    180.00   
    30. L(Mo  0,C   3,O   8,C  10, 1) 179.99 -0.000013    0.00    179.99   
    31. L(Mo  0,C   4,O   7,C  10, 2) 179.99 -0.000003    0.00    179.99   
    32. L(Mo  0,C   4,O   7,C  10, 1) 179.97 -0.000001    0.00    179.97   
    33. L(Mo  0,C   9,O  11,C   1, 2) 179.99 -0.000007    0.00    179.99   
    34. L(Mo  0,C   9,O  11,C   1, 1) 179.97 -0.000023    0.00    179.97   
    35. L(Mo  0,C  10,O  12,C   4, 2) 180.01  0.000006   -0.00    180.01   
    36. L(Mo  0,C  10,O  12,C   4, 1) 179.96 -0.000023    0.00    179.97   
    ----------------------------------------------------------------------------

         *************************************************************
         *                GEOMETRY OPTIMIZATION CYCLE   2            *
         *************************************************************
---------------------------------
CARTESIAN COORDINATES (ANGSTROEM)
---------------------------------
  Mo    -1.162232    1.462309    0.004400
  C     -1.141262    3.576047    0.193769
  C      0.959266    1.437705    0.047035
  C     -3.283804    1.487095   -0.038214
  C     -1.183293   -0.651448   -0.184974
  O     -1.129889    4.713272    0.294992
  O      2.100743    1.424618    0.069869
  O     -1.194739   -1.788666   -0.286202
  O     -4.425258    1.500396   -0.061023
  C     -1.117271    1.653285   -2.108779
  C     -1.207140    1.271135    2.117591
  O     -1.092910    1.756576   -3.245611
  O     -1.231420    1.167625    3.254397

----------------------------
CARTESIAN COORDINATES (A.U.)
----------------------------
  NO LB      ZA    FRAG     MASS         X           Y           Z
   0 Mo   14.0000*   0    95.940   -2.196299    2.763364    0.008314
   1 C     6.0000    0    12.011   -2.156673    6.757749    0.366170
   2 C     6.0000    0    12.011    1.812750    2.716868    0.088884
   3 C     6.0000    0    12.011   -6.205491    2.810203   -0.072214
   4 C     6.0000    0    12.011   -2.236100   -1.231058   -0.349551
   5 O     8.0000    0    15.999   -2.135182    8.906793    0.557454
   6 O     8.0000    0    15.999    3.969829    2.692139    0.132032
   7 O     8.0000    0    15.999   -2.257730   -3.380089   -0.540844
   8 O     8.0000    0    15.999   -8.362526    2.835337   -0.115316
   9 C     6.0000    0    12.011   -2.111335    3.124256   -3.985015
  10 C     6.0000    0    12.011   -2.281164    2.402097    4.001668
  11 O     8.0000    0    15.999   -2.065300    3.319448   -6.133316
  12 O     8.0000    0    15.999   -2.327047    2.206492    6.149920
* core charge reduced due to ECP

--------------------------------
INTERNAL COORDINATES (ANGSTROEM)
--------------------------------
 Mo     0   0   0     0.000000000000     0.00000000     0.00000000
 C      1   0   0     2.122307152630     0.00000000     0.00000000
 C      1   2   0     2.122068629462    89.99295680     0.00000000
 C      1   2   3     2.122145445302    90.00211933   179.99980723
 C      1   2   3     2.122327384616   179.99751357   180.79632522
 O      2   1   3     1.141777885188   179.96666785    83.30554766
 O      3   1   2     1.141780295880   179.99067778   319.82724946
 O      5   1   3     1.141772202445   179.96666403    98.78332938
 O      4   1   2     1.141758889574   179.99380921   258.53877444
[...]
     24      -0.000585   0.006670  -0.445961   0.025206   0.409391   0.306510
     25       0.072971   0.023758   0.005347  -0.000333  -0.004836  -0.003559
     26       0.023763  -0.072840  -0.009909   0.000369   0.008442   0.006141
     27      -0.003237   0.006310   0.182095  -0.006793   0.004919  -0.005419
     28      -0.185218  -0.001081  -0.001733  -0.029833   0.019725  -0.024105
     29       0.083061  -0.436542  -0.001322   0.330894  -0.225974   0.274153
     30      -0.003235   0.006285   0.182084   0.006818  -0.004817   0.005437
     31      -0.185240  -0.001062  -0.001734   0.029795  -0.019666   0.024171
     32       0.083249  -0.436635  -0.001310  -0.330828   0.225925  -0.274107
     33      -0.001612   0.010347  -0.076742  -0.007287   0.004886  -0.006287
     34       0.065645   0.055884   0.001373  -0.031038   0.021542  -0.026843
     35       0.105828  -0.431372  -0.006490   0.344175  -0.235149   0.293920
     36      -0.001615   0.010341  -0.076738   0.007256  -0.004913   0.006265
     37       0.065619   0.055923   0.001370   0.031077  -0.021580   0.026837
     38       0.106047  -0.431462  -0.006459  -0.344102   0.235088  -0.293881
                 24         25         26         27         28         29    
      0       0.000000  -0.000005  -0.000004  -0.000040   0.000024   0.000030
      1       0.000001  -0.000001   0.000000   0.000038   0.000036  -0.000115
      2       0.000005   0.000003  -0.000003   0.000069   0.000210  -0.000057
      3       0.023201  -0.343509  -0.332831  -0.468479  -0.057125  -0.042300
      4       0.042660   0.003416   0.005974  -0.001176   0.042168   0.006581
      5      -0.476013  -0.001638  -0.030979   0.063150  -0.463034  -0.068228
      6      -0.000359  -0.010675   0.004195   0.001890  -0.009267  -0.006083
      7       0.011281  -0.371787  -0.301489   0.039579   0.031406  -0.470868
      8       0.022318   0.301583  -0.371315  -0.069296   0.467586   0.025328
      9       0.000355   0.010727  -0.004143   0.001899  -0.009250  -0.006158
     10      -0.011270   0.371816   0.301507   0.039659   0.031421  -0.470836
     11      -0.022260  -0.301638   0.371381  -0.069265   0.467511   0.025319
     12      -0.023202   0.343563   0.332894  -0.468392  -0.057114  -0.042277
     13      -0.042662  -0.003432  -0.005982  -0.001160   0.042181   0.006573
     14       0.475979   0.001680   0.030934   0.063160  -0.463085  -0.068216
     15      -0.006975   0.103124   0.099901   0.158048   0.019250   0.014271
     16      -0.012612  -0.001172  -0.001895   0.000242  -0.014179  -0.002163
     17       0.142682   0.000481   0.009264  -0.021281   0.155971   0.022976
     18       0.000056   0.003054  -0.001117  -0.000635   0.003095   0.002007
     19      -0.003391   0.111557   0.090462  -0.013336  -0.010599   0.158732
     20      -0.006714  -0.090425   0.111370   0.023396  -0.157614  -0.008539
     21       0.006975  -0.103145  -0.099925   0.158024   0.019247   0.014265
     22       0.012610   0.001175   0.001895   0.000243  -0.014179  -0.002173
     23      -0.142667  -0.000496  -0.009248  -0.021283   0.155984   0.022972
     24      -0.000055  -0.003063   0.001110  -0.000632   0.003094   0.002013
     25       0.003388  -0.111566  -0.090467  -0.013358  -0.010603   0.158721
     26       0.006692   0.090444  -0.111393   0.023388  -0.157592  -0.008537
     27      -0.016406  -0.333657   0.342912   0.466521   0.066193   0.048277
     28       0.476524  -0.001403   0.020279  -0.038447  -0.073940   0.464717
     29       0.043346  -0.006947   0.008864   0.006165  -0.005401   0.043145
     30       0.016409   0.333610  -0.342984   0.466497   0.066258   0.048284
     31      -0.476543   0.001404  -0.020284  -0.038450  -0.073886   0.464697
     32      -0.043407   0.006923  -0.008845   0.006126  -0.005409   0.043198
     33       0.004894   0.100059  -0.102842  -0.157263  -0.022293  -0.016269
     34      -0.142885   0.000399  -0.006052   0.012989   0.024925  -0.156542
     35      -0.012235   0.002371  -0.002926  -0.002334   0.001684  -0.014469
     36      -0.004894  -0.100041   0.102868  -0.157255  -0.022311  -0.016271
     37       0.142893  -0.000399   0.006053   0.012991   0.024910  -0.156537
     38       0.012239  -0.002368   0.002923  -0.002331   0.001682  -0.014471
                 30         31         32         33         34         35    
      0      -0.167143   0.026405   0.012792   0.000254   0.000006  -0.000006
      1       0.023633   0.077758   0.148717  -0.000006   0.000221   0.000166
      2      -0.017214  -0.148278   0.080280  -0.000003   0.000166  -0.000217
      3       0.463123  -0.071436  -0.031632  -0.001212   0.004712   0.002893
      4      -0.015176  -0.056401  -0.028403  -0.005535   0.480349   0.293555
      5       0.052456   0.425009  -0.187568  -0.000485   0.042537   0.027349
      6       0.047843  -0.017657  -0.004020   0.564879   0.013640  -0.011708
      7      -0.060851  -0.216271  -0.412900  -0.006623  -0.001091  -0.000549
      8       0.039616   0.412506  -0.222170   0.011652  -0.000407   0.000687
      9       0.047830  -0.017677  -0.004076   0.564815   0.013660  -0.011684
     10      -0.060861  -0.216260  -0.412883  -0.006698  -0.001093  -0.000547
     11       0.039617   0.412485  -0.222161   0.011642  -0.000407   0.000688
     12       0.463111  -0.071429  -0.031620  -0.001212   0.004727   0.002902
     13      -0.015189  -0.056400  -0.028399  -0.005517   0.480329   0.293553
     14       0.052453   0.425004  -0.187570  -0.000483   0.042539   0.027351
     15      -0.138753   0.021165   0.008928   0.000729  -0.003535  -0.002169
     16      -0.002742  -0.006488  -0.047697   0.004163  -0.361003  -0.220638
     17      -0.016321  -0.129206   0.051077   0.000367  -0.032072  -0.020410
     18       0.047100  -0.002970  -0.003454  -0.424473  -0.010250   0.008795
     19       0.017484   0.064862   0.123673   0.004980   0.000671   0.000305
     20      -0.010589  -0.123670   0.066439  -0.008749   0.000198  -0.000370
     21      -0.138751   0.021163   0.008923   0.000729  -0.003546  -0.002176
     22      -0.002736  -0.006486  -0.047696   0.004149  -0.360989  -0.220637
     23      -0.016320  -0.129205   0.051077   0.000366  -0.032073  -0.020412
     24       0.047096  -0.002959  -0.003432  -0.424427  -0.010264   0.008778
     25       0.017481   0.064860   0.123668   0.005036   0.000673   0.000304
     26      -0.010590  -0.123664   0.066437  -0.008742   0.000198  -0.000370
     27       0.463572  -0.064911  -0.038863  -0.000796  -0.006228   0.010149
     28      -0.062040  -0.181041  -0.426732   0.001563  -0.027536   0.042871
     29       0.008640   0.027790  -0.058925  -0.017011   0.293223  -0.480132
     30       0.463566  -0.064895  -0.038868  -0.000797  -0.006211   0.010119
     31      -0.062036  -0.181036  -0.426722   0.001568  -0.027565   0.042916
     32       0.008607   0.027774  -0.058962  -0.017045   0.293220  -0.480102
     33      -0.138808   0.018247   0.012122   0.000418   0.004665  -0.007609
     34       0.018057   0.049096   0.129778  -0.001171   0.020547  -0.032318
     35       0.002922   0.047857  -0.006375   0.012779  -0.220385   0.360834
     36      -0.138806   0.018244   0.012123   0.000418   0.004652  -0.007587
     37       0.018055   0.049091   0.129777  -0.001174   0.020569  -0.032352
     38       0.002932   0.047858  -0.006360   0.012804  -0.220383   0.360814
                 36         37         38    
      0       0.000000   0.000000   0.000000
      1       0.000000  -0.000000   0.000000
      2       0.000000  -0.000000  -0.000000
      3       0.003267   0.003212  -0.003272
      4       0.332532   0.326855  -0.333010
      5       0.029865   0.029354  -0.029910
      6      -0.451013   0.125076  -0.334356
      7       0.005300  -0.001469   0.003928
      8      -0.009272   0.002576  -0.006869
      9       0.451077  -0.125105   0.334361
     10      -0.005362   0.001486  -0.003971
     11       0.009266  -0.002575   0.006864
     12      -0.003278  -0.003222   0.003282
     13      -0.332567  -0.326848   0.333010
     14      -0.029871  -0.029356   0.029913
     15      -0.002356  -0.002317   0.002290
     16      -0.239994  -0.235893   0.233192
     17      -0.021560  -0.021193   0.020950
     18       0.325411  -0.090242   0.234070
     19      -0.003822   0.001061  -0.002752
     20       0.006691  -0.001853   0.004816
     21       0.002364   0.002324  -0.002297
     22       0.240021   0.235888  -0.233193
     23       0.021565   0.021194  -0.020952
     24      -0.325460   0.090265  -0.234074
     25       0.003866  -0.001073   0.002783
     26      -0.006687   0.001852  -0.004812
     27       0.002460  -0.009510  -0.007016
     28       0.010568  -0.040835  -0.030134
     29      -0.116750   0.451263   0.333007
     30      -0.002454   0.009484   0.006997
     31      -0.010580   0.040882   0.030166
     32       0.116754  -0.451282  -0.333007
     33      -0.001773   0.006859   0.004912
     34      -0.007630   0.029490   0.021116
     35       0.084260  -0.325671  -0.233184
     36       0.001768  -0.006840  -0.004898
     37       0.007639  -0.029523  -0.021139
     38      -0.084263   0.325686   0.233185


-----------
IR SPECTRUM
-----------

 Mode   freq       eps      Int      T**2         TX        TY        TZ
       cm**-1   L/(mol*cm) km/mol    a.u.
----------------------------------------------------------------------------
  6:     59.50   0.000000    0.00  0.000000  (-0.000014  0.000012  0.000057)
  7:     59.53   0.000000    0.00  0.000000  (-0.000001  0.000013  0.000056)
  8:     59.77   0.000000    0.00  0.000000  ( 0.000256 -0.000074 -0.000106)
  9:     83.44   0.000000    0.00  0.000000  ( 0.000000 -0.000000 -0.000004)
 10:     83.51   0.000000    0.00  0.000000  (-0.000001 -0.000001  0.000003)
 11:     83.66   0.000000    0.00  0.000000  ( 0.000004 -0.000000 -0.000000)
 12:     87.76   0.000320    1.62  0.001138  ( 0.003980  0.020000 -0.026871)
 13:     87.78   0.000320    1.62  0.001139  ( 0.000246 -0.027089 -0.020122)
 14:     88.06   0.000319    1.61  0.001131  (-0.033399  0.002169 -0.003331)
 15:    347.34   0.000000    0.00  0.000000  ( 0.000002 -0.000000  0.000002)
 16:    347.36   0.000000    0.00  0.000000  ( 0.000002 -0.000000 -0.000001)
 17:    347.71   0.000000    0.00  0.000000  ( 0.000000 -0.000000  0.000000)
 18:    372.78   0.011165   56.42  0.009346  ( 0.000232  0.091934  0.029907)
 19:    372.88   0.011171   56.45  0.009349  ( 0.003170  0.029967 -0.091873)
 20:    373.58   0.011141   56.30  0.009306  (-0.096413  0.001254 -0.003048)
 21:    389.58   0.000000    0.00  0.000000  (-0.000012  0.000016  0.000009)
 22:    390.01   0.000000    0.00  0.000000  (-0.000023 -0.000019 -0.000009)
 23:    406.23   0.000000    0.00  0.000000  (-0.000010 -0.000006  0.000004)
 24:    488.64   0.000000    0.00  0.000000  (-0.000000 -0.000000 -0.000005)
 25:    488.70   0.000000    0.00  0.000000  ( 0.000007  0.000000 -0.000004)
 26:    488.72   0.000000    0.00  0.000000  ( 0.000005 -0.000001  0.000004)
 27:    524.79   0.000000    0.00  0.000000  (-0.000001  0.000004 -0.000002)
 28:    524.92   0.000000    0.00  0.000000  (-0.000026 -0.000053 -0.000127)
 29:    524.92   0.000000    0.00  0.000000  (-0.000007  0.000048  0.000095)
 30:    614.30   0.021088  106.57  0.010712  ( 0.101945 -0.014443  0.010534)
 31:    614.44   0.021043  106.34  0.010687  (-0.016109 -0.047422  0.090438)
 32:    614.46   0.021067  106.47  0.010699  (-0.007781 -0.090738 -0.049046)
 33:   2078.28   0.428965  2167.81  0.064411  ( 0.253734 -0.004788 -0.002694)
 34:   2078.39   0.428600  2165.97  0.064353  ( 0.005478  0.203650  0.151162)
 35:   2078.41   0.428985  2167.91  0.064410  ( 0.000573  0.151290 -0.203767)
 36:   2103.72   0.000000    0.00  0.000000  ( 0.000013 -0.000016 -0.000001)
 37:   2103.75   0.000000    0.00  0.000000  (-0.000011  0.000009 -0.000005)
 38:   2200.66   0.000000    0.00  0.000000  ( 0.000000 -0.000001 -0.000000)

* The epsilon (eps) is given for a Dirac delta lineshape.
** The dipole moment derivative (T) already includes vibrational overlap.

The first frequency considered to be a vibration is 6
The total number of vibrations considered is 33


--------------------------
THERMOCHEMISTRY AT 298.15K
--------------------------

Temperature         ... 298.15 K
Pressure            ... 1.00 atm
Total Mass          ... 264.00 AMU

Throughout the following assumptions are being made:
  (1) The electronic state is orbitally nondegenerate
  (2) There are no thermally accessible electronically excited states
  (3) Hindered rotations indicated by low frequency modes are not
      treated as such but are treated as vibrations and this may
      cause some error
  (4) All equations used are the standard statistical mechanics
      equations for an ideal gas
  (5) All vibrations are strictly harmonic

freq.      59.50  E(vib)   ...       0.51 
freq.      59.53  E(vib)   ...       0.51 
freq.      59.77  E(vib)   ...       0.51 
freq.      83.44  E(vib)   ...       0.48 
freq.      83.51  E(vib)   ...       0.48 
freq.      83.66  E(vib)   ...       0.48 
freq.      87.76  E(vib)   ...       0.48 
freq.      87.78  E(vib)   ...       0.48 
freq.      88.06  E(vib)   ...       0.48 
freq.     347.34  E(vib)   ...       0.23 
freq.     347.36  E(vib)   ...       0.23 
freq.     347.71  E(vib)   ...       0.23 
freq.     372.78  E(vib)   ...       0.21 
freq.     372.88  E(vib)   ...       0.21 
freq.     373.58  E(vib)   ...       0.21 
freq.     389.58  E(vib)   ...       0.20 
freq.     390.01  E(vib)   ...       0.20 
freq.     406.23  E(vib)   ...       0.19 
freq.     488.64  E(vib)   ...       0.15 
freq.     488.70  E(vib)   ...       0.15 
freq.     488.72  E(vib)   ...       0.15 
freq.     524.79  E(vib)   ...       0.13 
freq.     524.92  E(vib)   ...       0.13 
freq.     524.92  E(vib)   ...       0.13 
freq.     614.30  E(vib)   ...       0.10 
freq.     614.44  E(vib)   ...       0.10 
freq.     614.46  E(vib)   ...       0.10 
freq.    2078.28  E(vib)   ...       0.00 
freq.    2078.39  E(vib)   ...       0.00 
freq.    2078.41  E(vib)   ...       0.00 
freq.    2103.72  E(vib)   ...       0.00 
freq.    2103.75  E(vib)   ...       0.00 
freq.    2200.66  E(vib)   ...       0.00 

------------
INNER ENERGY
------------

The inner energy is: U= E(el) + E(ZPE) + E(vib) + E(rot) + E(trans)
    E(el)   - is the total energy from the electronic structure calculation
              = E(kin-el) + E(nuc-el) + E(el-el) + E(nuc-nuc)
    E(ZPE)  - the the zero temperature vibrational energy from the frequency calculation
    E(vib)  - the the finite temperature correction to E(ZPE) due to population
              of excited vibrational states
    E(rot)  - is the rotational thermal energy
    E(trans)- is the translational thermal energy

Summary of contributions to the inner energy U:
Electronic energy                ...   -747.50226824 Eh
Zero point energy                ...      0.04913453 Eh      30.83 kcal/mol
Thermal vibrational correction   ...      0.01183909 Eh       7.43 kcal/mol
Thermal rotational correction    ...      0.00141627 Eh       0.89 kcal/mol
Thermal translational correction ...      0.00141627 Eh       0.89 kcal/mol
-----------------------------------------------------------------------
Total thermal energy                   -747.43846207 Eh


Summary of corrections to the electronic energy:
(perhaps to be used in another calculation)
Total thermal correction                  0.01467164 Eh       9.21 kcal/mol
Non-thermal (ZPE) correction              0.04913453 Eh      30.83 kcal/mol
-----------------------------------------------------------------------
Total correction                          0.06380617 Eh      40.04 kcal/mol


--------
ENTHALPY
--------

The enthalpy is H = U + kB*T
                kB is Boltzmann's constant
Total free energy                 ...   -747.43846207 Eh 
Thermal Enthalpy correction       ...      0.00094421 Eh       0.59 kcal/mol
-----------------------------------------------------------------------
Total Enthalpy                    ...   -747.43751786 Eh


Note: Only C1 symmetry has been detected, increase convergence thresholds 
      if your molecule has a higher symmetry. Symmetry factor of 1.0 is   
      used for the rotational entropy correction. 
 

Note: Rotational entropy computed according to Herzberg 
Infrared and Raman Spectra, Chapter V,1, Van Nostrand Reinhold, 1945 
Point Group:  C1, Symmetry Number:   1  
Rotational constants in cm-1:     0.019361     0.019351     0.019347 

Vibrational entropy computed according to the QRRHO of S. Grimme
Chem.Eur.J. 2012 18 9955


-------
ENTROPY
-------

The entropy contributions are T*S = T*(S(el)+S(vib)+S(rot)+S(trans))
     S(el)   - electronic entropy
     S(vib)  - vibrational entropy
     S(rot)  - rotational entropy
     S(trans)- translational entropy
The entropies will be listed as multiplied by the temperature to get
units of energy

Electronic entropy                ...      0.00000000 Eh      0.00 kcal/mol
Vibrational entropy               ...      0.02135506 Eh     13.40 kcal/mol
Rotational entropy                ...      0.01509788 Eh      9.47 kcal/mol
Translational entropy             ...      0.02024613 Eh     12.70 kcal/mol
-----------------------------------------------------------------------
Final entropy term                ...      0.05669908 Eh     35.58 kcal/mol

In case the symmetry of your molecule has not been determined correctly
or in case you have a reason to use a different symmetry number we print 
out the resulting rotational entropy values for sn=1,12 :
 --------------------------------------------------------
|  sn= 1 | S(rot)=       0.01509788 Eh      9.47 kcal/mol|
|  sn= 2 | S(rot)=       0.01444343 Eh      9.06 kcal/mol|
|  sn= 3 | S(rot)=       0.01406059 Eh      8.82 kcal/mol|
|  sn= 4 | S(rot)=       0.01378897 Eh      8.65 kcal/mol|
|  sn= 5 | S(rot)=       0.01357828 Eh      8.52 kcal/mol|
|  sn= 6 | S(rot)=       0.01340614 Eh      8.41 kcal/mol|
|  sn= 7 | S(rot)=       0.01326059 Eh      8.32 kcal/mol|
|  sn= 8 | S(rot)=       0.01313451 Eh      8.24 kcal/mol|
|  sn= 9 | S(rot)=       0.01302331 Eh      8.17 kcal/mol|
|  sn=10 | S(rot)=       0.01292383 Eh      8.11 kcal/mol|
|  sn=11 | S(rot)=       0.01283384 Eh      8.05 kcal/mol|
|  sn=12 | S(rot)=       0.01275168 Eh      8.00 kcal/mol|
 --------------------------------------------------------


-------------------
GIBBS FREE ENERGY
-------------------

The Gibbs free energy is G = H - T*S

Total enthalpy                    ...   -747.43751786 Eh 
Total entropy correction          ...     -0.05669908 Eh    -35.58 kcal/mol
-----------------------------------------------------------------------
Final Gibbs free energy         ...   -747.49421694 Eh

For completeness - the Gibbs free energy minus the electronic energy
G-E(el)                           ...      0.00805130 Eh      5.05 kcal/mol


Timings for individual modules:

Sum of individual times         ...      674.178 sec (=  11.236 min)
GTO integral calculation        ...        5.799 sec (=   0.097 min)   0.9 %
SCF iterations                  ...      222.192 sec (=   3.703 min)  33.0 %
SCF Gradient evaluation         ...       65.942 sec (=   1.099 min)   9.8 %
Geometry relaxation             ...        0.227 sec (=   0.004 min)   0.0 %
Analytical frequency calculation...      380.018 sec (=   6.334 min)  56.4 %
                             ****ORCA TERMINATED NORMALLY****
TOTAL RUN TIME: 0 days 0 hours 11 minutes 15 seconds 351 msec
