
                                 *****************
                                 * O   R   C   A *
                                 *****************

                                            #,                                       
                                            ###                                      
                                            ####                                     
                                            #####                                    
                                            ######                                   
                                           ########,                                 
                                     ,,################,,,,,                         
                               ,,#################################,,                 
                          ,,##########################################,,             
                       ,#########################################, ''#####,          
                    ,#############################################,,   '####,        
                  ,##################################################,,,,####,       
                ,###########''''           ''''###############################       
              ,#####''   ,,,,##########,,,,          '''####'''          '####       
            ,##' ,,,,###########################,,,                        '##       
           ' ,,###''''                  '''############,,,                           
         ,,##''                                '''############,,,,        ,,,,,,###''
      ,#''                                            '''#######################'''  
     '                                                          ''''####''''         
             ,#######,   #######,   ,#######,      ##                                
            ,#'     '#,  ##    ##  ,#'     '#,    #''#        ######   ,####,        
            ##       ##  ##   ,#'  ##            #'  '#       #        #'  '#        
            ##       ##  #######   ##           ,######,      #####,   #    #        
            '#,     ,#'  ##    ##  '#,     ,#' ,#      #,         ##   #,  ,#        
             '#######'   ##     ##  '#######'  #'      '#     #####' # '####'        



                  #######################################################
                  #                        -***-                        #
                  #          Department of theory and spectroscopy      #
                  #    Directorship and core code : Frank Neese         #
                  #        Max Planck Institute fuer Kohlenforschung    #
                  #                Kaiser Wilhelm Platz 1               #
                  #                 D-45470 Muelheim/Ruhr               #
                  #                      Germany                        #
                  #                                                     #
                  #                  All rights reserved                #
                  #                        -***-                        #
                  #######################################################



                         Program Version 5.0.4 -  RELEASE  -

 With contributions from (in alphabetic order):
   Daniel Aravena         : Magnetic Suceptibility
   Michael Atanasov       : Ab Initio Ligand Field Theory (pilot matlab implementation)
   Alexander A. Auer      : GIAO ZORA, VPT2 properties, NMR spectrum
   Ute Becker             : Parallelization
   Giovanni Bistoni       : ED, misc. LED, open-shell LED, HFLD
   Martin Brehm           : Molecular dynamics
   Dmytro Bykov           : SCF Hessian
   Vijay G. Chilkuri      : MRCI spin determinant printing, contributions to CSF-ICE
   Dipayan Datta          : RHF DLPNO-CCSD density
   Achintya Kumar Dutta   : EOM-CC, STEOM-CC
   Dmitry Ganyushin       : Spin-Orbit,Spin-Spin,Magnetic field MRCI
   Miquel Garcia          : C-PCM and meta-GGA Hessian, CC/C-PCM, Gaussian charge scheme
   Yang Guo               : DLPNO-NEVPT2, F12-NEVPT2, CIM, IAO-localization
   Andreas Hansen         : Spin unrestricted coupled pair/coupled cluster methods
   Benjamin Helmich-Paris : MC-RPA, TRAH-SCF, COSX integrals
   Lee Huntington         : MR-EOM, pCC
   Robert Izsak           : Overlap fitted RIJCOSX, COSX-SCS-MP3, EOM
   Marcus Kettner         : VPT2
   Christian Kollmar      : KDIIS, OOCD, Brueckner-CCSD(T), CCSD density, CASPT2, CASPT2-K
   Simone Kossmann        : Meta GGA functionals, TD-DFT gradient, OOMP2, MP2 Hessian
   Martin Krupicka        : Initial AUTO-CI
   Lucas Lang             : DCDCAS
   Marvin Lechner         : AUTO-CI (C++ implementation), FIC-MRCC
   Dagmar Lenk            : GEPOL surface, SMD
   Dimitrios Liakos       : Extrapolation schemes; Compound Job, initial MDCI parallelization
   Dimitrios Manganas     : Further ROCIS development; embedding schemes
   Dimitrios Pantazis     : SARC Basis sets
   Anastasios Papadopoulos: AUTO-CI, single reference methods and gradients
   Taras Petrenko         : DFT Hessian,TD-DFT gradient, ASA, ECA, R-Raman, ABS, FL, XAS/XES, NRVS
   Peter Pinski           : DLPNO-MP2, DLPNO-MP2 Gradient
   Christoph Reimann      : Effective Core Potentials
   Marius Retegan         : Local ZFS, SOC
   Christoph Riplinger    : Optimizer, TS searches, QM/MM, DLPNO-CCSD(T), (RO)-DLPNO pert. Triples
   Tobias Risthaus        : Range-separated hybrids, TD-DFT gradient, RPA, STAB
   Michael Roemelt        : Original ROCIS implementation
   Masaaki Saitow         : Open-shell DLPNO-CCSD energy and density
   Barbara Sandhoefer     : DKH picture change effects
   Avijit Sen             : IP-ROCIS
   Kantharuban Sivalingam : CASSCF convergence, NEVPT2, FIC-MRCI
   Bernardo de Souza      : ESD, SOC TD-DFT
   Georgi Stoychev        : AutoAux, RI-MP2 NMR, DLPNO-MP2 response
   Willem Van den Heuvel  : Paramagnetic NMR
   Boris Wezisla          : Elementary symmetry handling
   Frank Wennmohs         : Technical directorship


 We gratefully acknowledge several colleagues who have allowed us to
 interface, adapt or use parts of their codes:
   Stefan Grimme, W. Hujo, H. Kruse, P. Pracht,  : VdW corrections, initial TS optimization,
                  C. Bannwarth, S. Ehlert          DFT functionals, gCP, sTDA/sTD-DF
   Ed Valeev, F. Pavosevic, A. Kumar             : LibInt (2-el integral package), F12 methods
   Garnet Chan, S. Sharma, J. Yang, R. Olivares  : DMRG
   Ulf Ekstrom                                   : XCFun DFT Library
   Mihaly Kallay                                 : mrcc  (arbitrary order and MRCC methods)
   Jiri Pittner, Ondrej Demel                    : Mk-CCSD
   Frank Weinhold                                : gennbo (NPA and NBO analysis)
   Christopher J. Cramer and Donald G. Truhlar   : smd solvation model
   Lars Goerigk                                  : TD-DFT with DH, B97 family of functionals
   V. Asgeirsson, H. Jonsson                     : NEB implementation
   FAccTs GmbH                                   : IRC, NEB, NEB-TS, DLPNO-Multilevel, CI-OPT
                                                   MM, QMMM, 2- and 3-layer-ONIOM, Crystal-QMMM,
                                                   LR-CPCM, SF, NACMEs, symmetry and pop. for TD-DFT,
                                                   nearIR, NL-DFT gradient (VV10), updates on ESD,
                                                   ML-optimized integration grids
   S Lehtola, MJT Oliveira, MAL Marques          : LibXC Library
   Liviu Ungur et al                             : ANISO software


 Your calculation uses the libint2 library for the computation of 2-el integrals
 For citations please refer to: http://libint.valeyev.net

 Your ORCA version has been built with support for libXC version: 5.1.0
 For citations please refer to: https://tddft.org/programs/libxc/

 This ORCA versions uses:
   CBLAS   interface :  Fast vector & matrix operations
   LAPACKE interface :  Fast linear algebra routines
   Shared memory     :  Shared parallel matrices


================================================================================

cite the ECPs for Os [Def2-ECP] as follows:
Ce-Yb(ecp-28): M. Dolg, H. Stoll, H.Preuss, J. Chem. Phys., 1989, 90, 1730-1734.
Y-Cd(ecp-28), Hf-Hg(ecp-46): D. Andrae,U. Haeussermann, M. Dolg, H. Stoll, H. Preuss, Theor. Chim. Acta, 1990, 77, 123-141.
In-Sb(ecp-28), Tl-Bi(ecp-46): B. Metz, H. Stoll, M. Dolg, J. Chem. Phys., 2000, 113, 2563-2569.
Te-Xe(ecp-28), Po-Rn(ecp-46): K. A. Peterson, D. Figgen, E. Goll, H. Stoll, M. Dolg, J. Chem. Phys., 2003, 119, 11113-11123.
Rb(ecp-28), Cs(ecp-46): T. Leininger, A. Nicklass, W. Kuechle, H. Stoll, M. Dolg, A. Bergner, Chem. Phys. Lett., 1996, 255, 274-280.
Sr(ecp-28), Ba(ecp-46): M. Kaupp, P. V. Schleyer, H. Stoll and H. Preuss, J. Chem. Phys., 1991, 94, 1360-1366.
La(ecp-46): M. Dolg, H. Stoll, A. Savin, H. Preuss, Theor. Chim. Acta, 1989, 75, 173-194.
Lu(ecp-28): X. Cao, M. Dolg, J. Chem. Phys., 2001, 115, 7348-7355.

ECP parameters for Os [Def2-ECP] have been obtained from:
TURBOMOLE (7.0.2)

----- Orbital basis set information -----
Your calculation utilizes the basis: def2-SVPD
   F. Weigend and R. Ahlrichs, Phys. Chem. Chem. Phys. 7, 3297 (2005).
   D. Rappoport and F. Furche, J. Chem. Phys. 133 134105 (2010).

----- AuxJ basis set information -----
Your calculation utilizes the auxiliary basis: def2/J
   F. Weigend, Phys. Chem. Chem. Phys. 8, 1057 (2006).

================================================================================
                                        WARNINGS
                       Please study these warnings very carefully!
================================================================================


WARNING: Geometry Optimization
  ===> : Switching off AutoStart
         For restart on a previous wavefunction, please use MOREAD

INFO   : the flag for use of the SHARK integral package has been found!

================================================================================
                                       INPUT FILE
================================================================================
NAME = OsCO6.inp
|  1> !B3LYP def2-SVPD OPT FREQ TightSCF PAL8
|  2> 
|  3> %scf
|  4>   MaxIter 300
|  5> end
|  6> 
|  7> * xyz 0 1 
|  8> Os        -0.37519        0.91836        0.03664
|  9> C          1.70167        0.95580        0.04021
| 10> C         -0.41286        2.99488        0.07459
| 11> C         -2.45197        0.87982        0.03305
| 12> C         -0.33838       -1.15810       -0.00138
| 13> O         -0.43334        4.12246        0.09483
| 14> O          2.82947        0.97606        0.04211
| 15> O         -0.31881       -2.28580       -0.02171
| 16> O         -3.57979        0.85842        0.03112
| 17> C         -0.37184        0.95835       -2.04013
| 18> C         -0.37782        0.87948        2.11345
| 19> O         -0.36983        0.98067       -3.16792
| 20> O         -0.37912        0.85829        3.24125
| 21> **                         ****END OF INPUT****
================================================================================

                       *****************************
                       * Geometry Optimization Run *
                       *****************************

Geometry optimization settings:
Update method            Update   .... BFGS
Choice of coordinates    CoordSys .... Z-matrix Internals
Initial Hessian          InHess   .... Almoef's Model

Convergence Tolerances:
Energy Change            TolE     ....  5.0000e-06 Eh
Max. Gradient            TolMAXG  ....  3.0000e-04 Eh/bohr
RMS Gradient             TolRMSG  ....  1.0000e-04 Eh/bohr
Max. Displacement        TolMAXD  ....  4.0000e-03 bohr
RMS Displacement         TolRMSD  ....  2.0000e-03 bohr
Strict Convergence                ....  False
------------------------------------------------------------------------------
                        ORCA OPTIMIZATION COORDINATE SETUP
------------------------------------------------------------------------------

The optimization will be done in new redundant internal coordinates
Making redundant internal coordinates   ...  (new redundants) done
Evaluating the initial hessian          ...  (Almloef) done
Evaluating the coordinates              ...  done
Calculating the B-matrix                .... done
Calculating the G-matrix                .... done
Diagonalizing the G-matrix              .... done
The first mode is                       ....    3
The number of degrees of freedom        ....   33

    -----------------------------------------------------------------
                    Redundant Internal Coordinates


    -----------------------------------------------------------------
         Definition                    Initial Value    Approx d2E/dq
    -----------------------------------------------------------------
      1. B(C   1,Os  0)                  2.0772         0.116494   
      2. B(C   2,Os  0)                  2.0772         0.116491   
      3. B(C   3,Os  0)                  2.0771         0.116520   
      4. B(C   4,Os  0)                  2.0771         0.116523   
      5. B(O   5,C   2)                  1.1279         1.465424   
      6. B(O   6,C   1)                  1.1280         1.465231   
      7. B(O   7,C   4)                  1.1281         1.464857   
      8. B(O   8,C   3)                  1.1280         1.465009   
      9. B(C   9,Os  0)                  2.0772         0.116513   
     10. B(C  10,Os  0)                  2.0772         0.116505   
     11. B(O  11,C   9)                  1.1280         1.465074   
     12. B(O  12,C  10)                  1.1280         1.465143   
     13. A(C   3,Os  0,C   9)           90.0138         0.270986   
     14. A(C   2,Os  0,C   9)           89.9455         0.270976   
     15. A(C   1,Os  0,C  10)           89.9934         0.270974   
     16. A(C   4,Os  0,C  10)           89.9777         0.270984   
     17. A(C   2,Os  0,C  10)           90.0242         0.270973   
     18. A(C   4,Os  0,C   9)           90.0525         0.270987   
     19. A(C   3,Os  0,C  10)           90.0066         0.270983   
     20. A(C   3,Os  0,C   4)           89.9506         0.270990   
     21. A(C   1,Os  0,C   2)           90.0047         0.270969   
     22. A(C   2,Os  0,C   3)           90.0257         0.270978   
     23. A(C   1,Os  0,C   4)           90.0190         0.270980   
     24. A(C   1,Os  0,C   9)           89.9862         0.270977   
     25. L(Os  0,C   1,O   6,C   9, 1) 179.9981         0.390928   
     26. L(Os  0,C   1,O   6,C   9, 2) 180.0052         0.390928   
     27. L(Os  0,C   2,O   5,C   9, 2) 179.9982         0.390935   
     28. L(Os  0,C   2,O   5,C   9, 1) 179.9813         0.390935   
     29. L(Os  0,C   3,O   8,C   4, 2) 179.9980         0.390933   
     30. L(Os  0,C   3,O   8,C   4, 1) 179.9761         0.390933   
     31. L(Os  0,C   4,O   7,C   3, 2) 180.0229         0.390927   
     32. L(Os  0,C   4,O   7,C   3, 1) 179.9786         0.390927   
     33. L(Os  0,C   9,O  11,C   2, 2) 179.9855         0.390931   
     34. L(Os  0,C   9,O  11,C   2, 1) 179.9695         0.390931   
     35. L(Os  0,C  10,O  12,C   4, 2) 179.9909         0.390930   
     36. L(Os  0,C  10,O  12,C   4, 1) 179.9960         0.390930   
    -----------------------------------------------------------------

Number of atoms                         .... 13
Number of degrees of freedom            .... 36

         *************************************************************
         *                GEOMETRY OPTIMIZATION CYCLE   1            *
         *************************************************************
---------------------------------
CARTESIAN COORDINATES (ANGSTROEM)
---------------------------------
  Os    -0.375190    0.918360    0.036640
  C      1.701670    0.955800    0.040210
  C     -0.412860    2.994880    0.074590
  C     -2.451970    0.879820    0.033050
  C     -0.338380   -1.158100   -0.001380
  O     -0.433340    4.122460    0.094830
  O      2.829470    0.976060    0.042110
  O     -0.318810   -2.285800   -0.021710
  O     -3.579790    0.858420    0.031120
  C     -0.371840    0.958350   -2.040130
  C     -0.377820    0.879480    2.113450
  O     -0.369830    0.980670   -3.167920
  O     -0.379120    0.858290    3.241250

----------------------------
CARTESIAN COORDINATES (A.U.)
----------------------------
  NO LB      ZA    FRAG     MASS         X           Y           Z
   0 Os   16.0000*   0   190.200   -0.709006    1.735449    0.069240
   1 C     6.0000    0    12.011    3.215690    1.806200    0.075986
   2 C     6.0000    0    12.011   -0.780192    5.659503    0.140955
   3 C     6.0000    0    12.011   -4.633552    1.662619    0.062455
   4 C     6.0000    0    12.011   -0.639446   -2.188492   -0.002608
   5 O     8.0000    0    15.999   -0.818894    7.790320    0.179203
   6 O     8.0000    0    15.999    5.346923    1.844486    0.079576
   7 O     8.0000    0    15.999   -0.602464   -4.319536   -0.041026
   8 O     8.0000    0    15.999   -6.764823    1.622179    0.058808
   9 C     6.0000    0    12.011   -0.702676    1.811019   -3.855287
  10 C     6.0000    0    12.011   -0.713976    1.661976    3.993842
  11 O     8.0000    0    15.999   -0.698877    1.853198   -5.986501
  12 O     8.0000    0    15.999   -0.716433    1.621933    6.125075
* core charge reduced due to ECP

--------------------------------
INTERNAL COORDINATES (ANGSTROEM)
--------------------------------
 Os     0   0   0     0.000000000000     0.00000000     0.00000000
 C      1   0   0     2.077200509845     0.00000000     0.00000000
 C      1   2   0     2.077208353007    90.00471305     0.00000000
 C      1   2   3     2.077140676050   179.96961773   180.00103718
 C      1   2   3     2.077134234492    90.01897867   179.99807210
 O      3   1   2     1.127947580520   179.98129853    93.93734075
 O      2   1   3     1.127983562646   179.99589098   207.46927600
 O      5   1   2     1.128053005758   179.97320216   142.83553627
 O      4   1   5     1.128024661654   179.97609052     3.43596046
 C      1   2   3     2.077157686720    89.98618107    89.94554842
 C      1   2   3     2.077175569710    89.99340818   269.97581812
 O     10   1   2     1.128012635833   179.96785996   288.58094428
 O     11   1   2     1.127999798803   179.99241863   328.16770095

---------------------------
INTERNAL COORDINATES (A.U.)
---------------------------
 Os     0   0   0     0.000000000000     0.00000000     0.00000000
 C      1   0   0     3.925340088848     0.00000000     0.00000000
 C      1   2   0     3.925354910276    90.00471305     0.00000000
 C      1   2   3     3.925227019362   179.96961773   180.00103718
 C      1   2   3     3.925214846583    90.01897867   179.99807210
 O      3   1   2     2.131512020601   179.98129853    93.93734075
 O      2   1   3     2.131580016966   179.99589098   207.46927600
 O      5   1   2     2.131711245430   179.97320216   142.83553627
 O      4   1   5     2.131657682836   179.97609052     3.43596046
 C      1   2   3     3.925259164870    89.98618107    89.94554842
 C      1   2   3     3.925292958824    89.99340818   269.97581812
 O     10   1   2     2.131634957328   179.96785996   288.58094428
 O     11   1   2     2.131610698856   179.99241863   328.16770095

---------------------
BASIS SET INFORMATION
---------------------
There are 3 groups of distinct atoms

 Group   1 Type Os  : 7s7p5d1f contracted to 6s4p2d1f pattern {211111/4111/41/1}
 Group   2 Type C   : 8s4p2d contracted to 4s2p2d pattern {5111/31/11}
 Group   3 Type O   : 8s5p2d contracted to 4s3p2d pattern {5111/311/11}

Atom   0Os   basis set group =>   1
Atom   1C    basis set group =>   2
Atom   2C    basis set group =>   2
Atom   3C    basis set group =>   2
Atom   4C    basis set group =>   2
Atom   5O    basis set group =>   3
Atom   6O    basis set group =>   3
Atom   7O    basis set group =>   3
Atom   8O    basis set group =>   3
Atom   9C    basis set group =>   2
Atom  10C    basis set group =>   2
Atom  11O    basis set group =>   3
Atom  12O    basis set group =>   3
---------------------------------
AUXILIARY/J BASIS SET INFORMATION
---------------------------------
There are 3 groups of distinct atoms

 Group   1 Type Os  : 11s5p5d3f3g contracted to 8s5p5d2f3g pattern {41111111/11111/11111/21/111}
 Group   2 Type C   : 12s5p4d2f1g contracted to 6s4p3d1f1g pattern {711111/2111/211/2/1}
 Group   3 Type O   : 12s5p4d2f1g contracted to 6s4p3d1f1g pattern {711111/2111/211/2/1}

Atom   0Os   basis set group =>   1
Atom   1C    basis set group =>   2
Atom   2C    basis set group =>   2
Atom   3C    basis set group =>   2
Atom   4C    basis set group =>   2
Atom   5O    basis set group =>   3
Atom   6O    basis set group =>   3
Atom   7O    basis set group =>   3
Atom   8O    basis set group =>   3
Atom   9C    basis set group =>   2
Atom  10C    basis set group =>   2
Atom  11O    basis set group =>   3
Atom  12O    basis set group =>   3
-------------------------
ECP PARAMETER INFORMATION
-------------------------

 Group 1, Type Os ECP Def2-ECP (replacing 60 core electrons, lmax=3)

Atom   0Os   ECP group =>   1



           ************************************************************
           *        Program running with 8 parallel MPI-processes     *
           *              working on a common directory               *
           ************************************************************
------------------------------------------------------------------------------
                           ORCA GTO INTEGRAL CALCULATION
                           -- RI-GTO INTEGRALS CHOSEN --
------------------------------------------------------------------------------
------------------------------------------------------------------------------
                   ___                                                        
                  /   \      - P O W E R E D   B Y -                         
                 /     \                                                     
                 |  |  |   _    _      __       _____    __    __             
                 |  |  |  | |  | |    /  \     |  _  \  |  |  /  |          
                  \  \/   | |  | |   /    \    | | | |  |  | /  /          
                 / \  \   | |__| |  /  /\  \   | |_| |  |  |/  /          
                |  |  |   |  __  | /  /__\  \  |    /   |      \           
                |  |  |   | |  | | |   __   |  |    \   |  |\   \          
                \     /   | |  | | |  |  |  |  | |\  \  |  | \   \       
                 \___/    |_|  |_| |__|  |__|  |_| \__\ |__|  \__/        
                                                                              
                      - O R C A' S   B I G   F R I E N D -                    
                                      &                                       
                       - I N T E G R A L  F E E D E R -                       
                                                                              
 v1 FN, 2020, v2 2021                                                         
------------------------------------------------------------------------------


Reading SHARK input file OsCO6.SHARKINP.tmp ... ok
----------------------
SHARK INTEGRAL PACKAGE
----------------------

Number of atoms                             ...     13
Number of basis functions                   ...    293
Number of shells                            ...    115
Maximum angular momentum                    ...      3
Integral batch strategy                     ... SHARK/LIBINT Hybrid
RI-J (if used) integral strategy            ... SPLIT-RIJ (Revised 2003 algorithm where possible)
Printlevel                                  ...      1
Contraction scheme used                     ... SEGMENTED contraction
Coulomb Range Separation                    ... NOT USED
Exchange Range Separation                   ... NOT USED
Finite Nucleus Model                        ... NOT USED
Auxiliary Coulomb fitting basis             ... AVAILABLE
   # of basis functions in Aux-J            ...    677
   # of shells in Aux-J                     ...    203
   Maximum angular momentum in Aux-J        ...      4
Auxiliary J/K fitting basis                 ... NOT available
Auxiliary Correlation fitting basis         ... NOT available
Auxiliary 'external' fitting basis          ... NOT available
Integral threshold                          ...     2.500000e-11
Primitive cut-off                           ...     2.500000e-12
Primitive pair pre-selection threshold      ...     2.500000e-12

Calculating pre-screening integrals         ... done (  0.0 sec) Dimension = 115
Organizing shell pair data                  ... done (  0.1 sec)
Shell pair information
Total number of shell pairs                 ...      6670
Shell pairs after pre-screening             ...      6079
Total number of primitive shell pairs       ...     19084
Primitive shell pairs kept                  ...     13333
          la=0 lb=0:   1290 shell pairs
          la=1 lb=0:   1692 shell pairs
          la=1 lb=1:    568 shell pairs
          la=2 lb=0:   1248 shell pairs
          la=2 lb=1:    836 shell pairs
          la=2 lb=2:    330 shell pairs
          la=3 lb=0:     54 shell pairs
          la=3 lb=1:     34 shell pairs
          la=3 lb=2:     26 shell pairs
          la=3 lb=3:      1 shell pairs

Calculating one electron integrals          ... done (  0.0 sec)
Calculating ECP integrals                   ... done (  0.5 sec)
Calculating RI/J V-Matrix + Cholesky decomp.... done (  0.1 sec)
Calculating Nuclear repulsion               ... done (  0.0 sec) ENN=    794.195674529270 Eh

SHARK setup successfully completed in   1.0 seconds

Maximum memory used throughout the entire GTOINT-calculation: 18.0 MB


           ************************************************************
           *        Program running with 8 parallel MPI-processes     *
           *              working on a common directory               *
           ************************************************************
-------------------------------------------------------------------------------
                                 ORCA SCF
-------------------------------------------------------------------------------

------------
SCF SETTINGS
------------
Hamiltonian:
 Density Functional     Method          .... DFT(GTOs)
 Exchange Functional    Exchange        .... B88
   X-Alpha parameter    XAlpha          ....  0.666667
   Becke's b parameter  XBeta           ....  0.004200
 Correlation Functional Correlation     .... LYP
 LDA part of GGA corr.  LDAOpt          .... VWN-5
 Gradients option       PostSCFGGA      .... off
 Hybrid DFT is turned on
   Fraction HF Exchange ScalHFX         ....  0.200000
   Scaling of DF-GGA-X  ScalDFX         ....  0.720000
   Scaling of DF-GGA-C  ScalDFC         ....  0.810000
   Scaling of DF-LDA-C  ScalLDAC        ....  1.000000
   Perturbative correction              ....  0.000000
   Density functional embedding theory  .... OFF
   NL short-range parameter             ....  4.800000
 RI-approximation to the Coulomb term is turned on
   Number of AuxJ basis functions       .... 677
   RIJ-COSX (HFX calculated with COS-X)).... on


General Settings:
 Integral files         IntName         .... OsCO6
 Hartree-Fock type      HFTyp           .... RHF
 Total Charge           Charge          ....    0
 Multiplicity           Mult            ....    1
 Number of Electrons    NEL             ....  100
 Basis Dimension        Dim             ....  293
 Nuclear Repulsion      ENuc            ....    794.1956745293 Eh

Convergence Acceleration:
 DIIS                   CNVDIIS         .... on
   Start iteration      DIISMaxIt       ....    12
   Startup error        DIISStart       ....  0.200000
   # of expansion vecs  DIISMaxEq       ....     5
   Bias factor          DIISBfac        ....   1.050
   Max. coefficient     DIISMaxC        ....  10.000
 Trust-Rad. Augm. Hess. CNVTRAH         .... auto
   Auto Start mean grad. ratio tolernc. ....  1.125000
   Auto Start start iteration           ....    20
   Auto Start num. interpolation iter.  ....    10
   Max. Number of Micro iterations      ....    16
   Max. Number of Macro iterations      .... Maxiter - #DIIS iter
   Number of Davidson start vectors     ....     2
   Converg. threshold I  (grad. norm)   ....   1.000e-05
   Converg. threshold II (energy diff.) ....   1.000e-08
   Grad. Scal. Fac. for Micro threshold ....   0.100
   Minimum threshold for Micro iter.    ....   0.010
   NR start threshold (gradient norm)   ....   0.001
   Initial trust radius                 ....   0.400
   Minimum AH scaling param. (alpha)    ....   1.000
   Maximum AH scaling param. (alpha)    .... 1000.000
   Orbital update algorithm             .... Taylor
   White noise on init. David. guess    .... on
   Maximum white noise                  ....   0.010
   Quad. conv. algorithm                .... NR
 SOSCF                  CNVSOSCF        .... off
 Level Shifting         CNVShift        .... on
   Level shift para.    LevelShift      ....    0.2500
   Turn off err/grad.   ShiftErr        ....    0.0010
 Zerner damping         CNVZerner       .... off
 Static damping         CNVDamp         .... on
   Fraction old density DampFac         ....    0.7000
   Max. Damping (<1)    DampMax         ....    0.9800
   Min. Damping (>=0)   DampMin         ....    0.0000
   Turn off err/grad.   DampErr         ....    0.1000
 Fernandez-Rico         CNVRico         .... off

SCF Procedure:
 Maximum # iterations   MaxIter         ....   300
 SCF integral mode      SCFMode         .... Direct
   Integral package                     .... SHARK and LIBINT hybrid scheme
 Reset frequency        DirectResetFreq ....    20
 Integral Threshold     Thresh          ....  2.500e-11 Eh
 Primitive CutOff       TCut            ....  2.500e-12 Eh

Convergence Tolerance:
 Convergence Check Mode ConvCheckMode   .... Total+1el-Energy
 Convergence forced     ConvForced      .... 0
 Energy Change          TolE            ....  1.000e-08 Eh
 1-El. energy change                    ....  1.000e-05 Eh
 DIIS Error             TolErr          ....  5.000e-07


Diagonalization of the overlap matrix:
Smallest eigenvalue                        ... 7.287e-06
Time for diagonalization                   ...    0.022 sec
Threshold for overlap eigenvalues          ... 1.000e-08
Number of eigenvalues below threshold      ... 0
Time for construction of square roots      ...    0.050 sec
Total time needed                          ...    0.072 sec

Time for model grid setup =    0.159 sec

------------------------------
INITIAL GUESS: MODEL POTENTIAL
------------------------------
Loading Hartree-Fock densities                     ... done
  calling C:\orca_5_0_4\orca OsCO6_atom76.inp > OsCO6_atom76.out in order to generate an atomic fitting density for atom 0 (Os with ECP) on-the-fly... 
    atom 0 (Os), assumed electronic state with S=5: 1s2 2s2 2p6 3s2 3p6 4s2 3d10 4p6 5s2 4d10 5p6 6s2 4f14 5d6           ... done
Calculating cut-offs                               ... done
Initializing the effective Hamiltonian             ... done
Setting up the integral package (SHARK)            ... done
Starting the Coulomb interaction                   ... done (   0.1 sec)
Reading the grid                                   ... done
Mapping shells                                     ... done
Starting the XC term evaluation                    ... done (   0.2 sec)
  promolecular density results
     # of electrons  =    160.006411261
     EX              =   -422.160682459
     EC              =     -7.120817465
     EX+EC           =   -429.281499924
Transforming the Hamiltonian                       ... done (   0.0 sec)
Diagonalizing the Hamiltonian                      ... done (   0.0 sec)
Back transforming the eigenvectors                 ... done (   0.0 sec)
Now organizing SCF variables                       ... done
                      ------------------
                      INITIAL GUESS DONE (   1.7 sec)
                      ------------------
-------------------
DFT GRID GENERATION
-------------------

General Integration Accuracy     IntAcc      ... 4.388
Radial Grid Type                 RadialGrid  ... OptM3 with GC (2021)
Angular Grid (max. ang.)         AngularGrid ... 4 (Lebedev-302)
Angular grid pruning method      GridPruning ... 4 (adaptive)
Weight generation scheme         WeightScheme... Becke
Basis function cutoff            BFCut       ... 1.0000e-11
Integration weight cutoff        WCut        ... 1.0000e-14
Angular grids for H and He will be reduced by one unit
Partially contracted basis set               ... off
Rotationally invariant grid construction     ... off

Total number of grid points                  ...    85976
Total number of batches                      ...     1349
Average number of points per batch           ...       63
Average number of grid points per atom       ...     6614
Time for grid setup =    0.661 sec

--------------------
COSX GRID GENERATION
--------------------

GRIDX 1
-------
General Integration Accuracy     IntAcc      ... 3.816
Radial Grid Type                 RadialGrid  ... OptM3 with GC (2021)
Angular Grid (max. ang.)         AngularGrid ... 1 (Lebedev-50)
Angular grid pruning method      GridPruning ... 4 (adaptive)
Weight generation scheme         WeightScheme... Becke
Basis function cutoff            BFCut       ... 1.0000e-11
Integration weight cutoff        WCut        ... 1.0000e-14
Angular grids for H and He will be reduced by one unit
Partially contracted basis set               ... on
Rotationally invariant grid construction     ... off

Total number of grid points                  ...    10550
Total number of batches                      ...      169
Average number of points per batch           ...       62
Average number of grid points per atom       ...      812
UseSFitting                                  ... on

GRIDX 2
-------
General Integration Accuracy     IntAcc      ... 4.020
Radial Grid Type                 RadialGrid  ... OptM3 with GC (2021)
Angular Grid (max. ang.)         AngularGrid ... 2 (Lebedev-110)
Angular grid pruning method      GridPruning ... 4 (adaptive)
Weight generation scheme         WeightScheme... Becke
Basis function cutoff            BFCut       ... 1.0000e-11
Integration weight cutoff        WCut        ... 1.0000e-14
Angular grids for H and He will be reduced by one unit
Partially contracted basis set               ... on
Rotationally invariant grid construction     ... off

Total number of grid points                  ...    27920
Total number of batches                      ...      443
Average number of points per batch           ...       63
Average number of grid points per atom       ...     2148
UseSFitting                                  ... on

GRIDX 3
-------
General Integration Accuracy     IntAcc      ... 4.338
Radial Grid Type                 RadialGrid  ... OptM3 with GC (2021)
Angular Grid (max. ang.)         AngularGrid ... 3 (Lebedev-194)
Angular grid pruning method      GridPruning ... 4 (adaptive)
Weight generation scheme         WeightScheme... Becke
Basis function cutoff            BFCut       ... 1.0000e-11
Integration weight cutoff        WCut        ... 1.0000e-14
Angular grids for H and He will be reduced by one unit
Partially contracted basis set               ... on
Rotationally invariant grid construction     ... off

Total number of grid points                  ...    59503
Total number of batches                      ...      937
Average number of points per batch           ...       63
Average number of grid points per atom       ...     4577
UseSFitting                                  ... on

Time for X-Grid setup             =    0.957 sec

--------------
SCF ITERATIONS
--------------
ITER       Energy         Delta-E        Max-DP      RMS-DP      [F,P]     Damp
               ***  Starting incremental Fock matrix formation  ***
  0   -769.3637601679   0.000000000000 0.63572117  0.00886238  0.3462683 0.7000
  1   -769.6028305572  -0.239070389204 0.49120347  0.00535125  0.2546524 0.7000
                               ***Turning on DIIS***
  2   -769.6438633003  -0.041032743148 0.36049362  0.00342204  0.1813482 0.7000
  3   -769.7014577504  -0.057594450053 0.23127079  0.00220603  0.1247290 0.7000
  4   -769.7394566145  -0.037998864119 0.53115060  0.00499415  0.0871760 0.0000
  5   -769.8246131763  -0.085156561835 0.02509395  0.00043147  0.0054804 0.0000
  6   -769.8246843102  -0.000071133913 0.00796110  0.00010459  0.0038442 0.0000
  7   -769.8247532416  -0.000068931340 0.03437677  0.00037770  0.0008419 0.0000
               *** Restarting incremental Fock matrix formation ***
                                   *** Resetting DIIS ***
  8   -769.8247515740   0.000001667540 0.01991655  0.00027350  0.0004054 0.0000
  9   -769.8247450116   0.000006562457 0.00079852  0.00002112  0.0012380 0.0000
 10   -769.8247540798  -0.000009068211 0.01122302  0.00015892  0.0004174 0.0000
 11   -769.8247581037  -0.000004023924 0.00477587  0.00007069  0.0002569 0.0000
 12   -769.8247601137  -0.000002009960 0.01232535  0.00017616  0.0001387 0.0000
 13   -769.8247632950  -0.000003181328 0.00762063  0.00012102  0.0001462 0.0000
 14   -769.8247652516  -0.000001956579 0.00739831  0.00011406  0.0000895 0.0000
 15   -769.8247672122  -0.000001960629 0.02241181  0.00035203  0.0000607 0.0000
 16   -769.8247724166  -0.000005204439 0.01731797  0.00028427  0.0001160 0.0000
 17   -769.8247762385  -0.000003821889 0.00760782  0.00013239  0.0000648 0.0000
 18   -769.8247777695  -0.000001531000 0.01880377  0.00031891  0.0000851 0.0000
 19   -769.8247814754  -0.000003705838 0.03503395  0.00061022  0.0000678 0.0000
 20   -769.8247875660  -0.000006090668 0.00305089  0.00005598  0.0000587 0.0000

 WARNING: the maximum gradient error descreased on average only by a factor   1.1
          during the last 20 iterations

                      *** Initiating the TRAH-SCF procedure ***


TRAH GRIDX
----------

General Integration Accuracy     IntAcc      ... 3.067
Radial Grid Type                 RadialGrid  ... OptM3 with GC (2021)
Angular Grid (max. ang.)         AngularGrid ... 1 (Lebedev-50)
Angular grid pruning method      GridPruning ... 4 (adaptive)
Weight generation scheme         WeightScheme... Becke
Basis function cutoff            BFCut       ... 1.0000e-11
Integration weight cutoff        WCut        ... 1.0000e-14
Angular grids for H and He will be reduced by one unit
Partially contracted basis set               ... on
Rotationally invariant grid construction     ... off

Total number of grid points                  ...     6036
Total number of batches                      ...       99
Average number of points per batch           ...       60
Average number of grid points per atom       ...      464


TRAH GRID
---------

General Integration Accuracy     IntAcc      ... 3.467
Radial Grid Type                 RadialGrid  ... OptM3 with GC (2021)
Angular Grid (max. ang.)         AngularGrid ... 1 (Lebedev-50)
Angular grid pruning method      GridPruning ... 4 (adaptive)
Weight generation scheme         WeightScheme... Becke
Basis function cutoff            BFCut       ... 1.0000e-11
Integration weight cutoff        WCut        ... 1.0000e-14
Angular grids for H and He will be reduced by one unit
Partially contracted basis set               ... off
Rotationally invariant grid construction     ... off

Total number of grid points                  ...    16688
Total number of batches                      ...      269
Average number of points per batch           ...       62
Average number of grid points per atom       ...     1284

 --------------------------------------------------------------------------------------------
   Iter.        energy            ||Error||_2        Shift      TRadius  Mac/Mic        Rej.
 --------------------------------------------------------------------------------------------
    0       -769.824788085025     8.771857e-04                     0.400 (TRAH MAcro)   No
    0     dE    -4.497992e-08     1.050983e-03    -8.9965e-08      0.000 (TRAH MIcro)
    0     dE    -7.417678e-06     9.172517e-03    -1.4815e-05      0.037 (TRAH MIcro)
    0     dE    -4.339534e-05     1.187495e-02    -8.3028e-05      0.213 (TRAH MIcro)
    0     dE    -5.120014e-05     5.575249e-03    -9.6469e-05      0.248 (TRAH MIcro)
    0     dE    -5.360861e-05     4.732223e-03    -1.0049e-04      0.259 (TRAH MIcro)
    0     dE    -5.714547e-05     6.064096e-03    -1.0632e-04      0.274 (TRAH MIcro)
    0     dE    -6.138395e-05     8.473422e-03    -1.1312e-04      0.292 (TRAH MIcro)
    0     dE    -7.395634e-05     5.682490e-03    -1.3206e-04      0.347 (TRAH MIcro)
    0     dE    -7.640060e-05     4.363837e-03    -1.3553e-04      0.357 (TRAH MIcro)
    0     dE    -7.815377e-05     1.842480e-03    -1.3799e-04      0.364 (TRAH MIcro)
    0     dE    -7.848966e-05     1.465771e-03    -1.3846e-04      0.366 (TRAH MIcro)
    0     dE    -7.866489e-05     7.825279e-04    -1.3870e-04      0.367 (TRAH MIcro)
    0     dE    -7.871933e-05     4.634236e-04    -1.3877e-04      0.367 (TRAH MIcro)
    0     dE    -7.874126e-05     2.050492e-04    -1.3880e-04      0.367 (TRAH MIcro)
 ---------------------------------
          TRAH Step control 
 ---------------------------------
  predicted energy change = -0.000079
  actual energy  change   = 0.000365
  energy change ratio     = -4.638328
  old trust radius        = 0.400000
  new trust radius        = 0.280000
  reject step?            =  1
    1       -769.824788085025     0.000000e+00                     0.280 (TRAH MAcro)  Yes
    2       -769.824788085025     8.771857e-04                           (NR   MAcro)
    2     dE    -9.096577e-07     2.806293e-03                           (NR   MIcro)
    2     dE    -3.232175e-05     1.495080e-02                           (NR   MIcro)
    2     dE    -4.900748e-05     6.370054e-03                           (NR   MIcro)
    2     dE    -5.113287e-05     4.149109e-03                           (NR   MIcro)
    2     dE    -5.508580e-05     5.754564e-03                           (NR   MIcro)
    2     dE    -6.371272e-05     9.076519e-03                           (NR   MIcro)
    2     dE    -7.247336e-05     4.421543e-03                           (NR   MIcro)
    2     dE    -7.449863e-05     2.694863e-03                           (NR   MIcro)
    2     dE    -7.541509e-05     2.120972e-03                           (NR   MIcro)
    2     dE    -7.605716e-05     8.358371e-04                           (NR   MIcro)
    2     dE    -7.612131e-05     5.858473e-04                           (NR   MIcro)
    2     dE    -7.618606e-05     1.872549e-04                           (NR   MIcro)
    2     dE    -7.618822e-05     1.082450e-04                           (NR   MIcro)
    2     dE    -7.618900e-05     7.891428e-05                           (NR   MIcro)
    2     dE    -7.618917e-05     7.125516e-05                           (NR   MIcro)
    3       -769.824249036268     5.705628e-02                     0.280 (TRAH MAcro)   No
    3     dE    -1.802053e-04     4.526207e-02    -3.6040e-04      0.006 (TRAH MIcro)
    3     dE    -3.730575e-04     1.529232e-02    -7.4538e-04      0.031 (TRAH MIcro)
    3     dE    -4.152994e-04     1.526043e-02    -8.2886e-04      0.046 (TRAH MIcro)
    3     dE    -4.469380e-04     1.304014e-02    -8.9030e-04      0.063 (TRAH MIcro)
    3     dE    -4.752306e-04     1.452130e-02    -9.4329e-04      0.087 (TRAH MIcro)
    3     dE    -5.004533e-04     8.265951e-03    -9.8875e-04      0.111 (TRAH MIcro)
    3     dE    -5.089370e-04     2.754868e-03    -1.0036e-03      0.119 (TRAH MIcro)
    4       -769.824766187610     4.428275e-03                     0.336 (TRAH MAcro)   No
    4     dE    -2.768583e-07     2.707359e-02    -5.5372e-07      0.000 (TRAH MIcro)
    4     dE    -9.342076e-06     1.142932e-02    -1.8683e-05      0.007 (TRAH MIcro)
    4     dE    -1.781920e-05     1.397011e-02    -3.5630e-05      0.015 (TRAH MIcro)
    4     dE    -2.484377e-05     1.312587e-02    -4.9648e-05      0.028 (TRAH MIcro)
    4     dE    -4.176388e-05     1.935976e-02    -8.3144e-05      0.068 (TRAH MIcro)
    4     dE    -5.036083e-05     6.780446e-03    -9.9916e-05      0.090 (TRAH MIcro)
    4     dE    -5.143683e-05     3.128627e-03    -1.0200e-04      0.093 (TRAH MIcro)
    4     dE    -5.189967e-05     6.047229e-04    -1.0289e-04      0.094 (TRAH MIcro)
    4     dE    -5.192578e-05     4.004114e-04    -1.0294e-04      0.094 (TRAH MIcro)
    5       -769.824821239763     3.598788e-03                     0.403 (TRAH MAcro)   No
    5     dE    -7.728038e-07     8.889941e-03    -1.5456e-06      0.000 (TRAH MIcro)
    5     dE    -1.667081e-06     1.340354e-03    -3.3341e-06      0.002 (TRAH MIcro)
    5     dE    -1.886878e-06     2.239413e-03    -3.7737e-06      0.003 (TRAH MIcro)
    5     dE    -2.240789e-06     1.644544e-03    -4.4814e-06      0.006 (TRAH MIcro)
    5     dE    -2.829010e-06     3.172007e-03    -5.6572e-06      0.012 (TRAH MIcro)
    5     dE    -4.062344e-06     2.349832e-03    -8.1189e-06      0.027 (TRAH MIcro)
    5     dE    -4.425332e-06     9.640814e-04    -8.8421e-06      0.031 (TRAH MIcro)
    5     dE    -4.467561e-06     7.570504e-04    -8.9262e-06      0.032 (TRAH MIcro)
    5     dE    -4.497426e-06     3.150720e-04    -8.9856e-06      0.032 (TRAH MIcro)
    6       -769.824826104376     4.930386e-04                           (NR   MAcro)
    6     dE    -1.738427e-08     2.232158e-04                           (NR   MIcro)
    6     dE    -2.677644e-08     2.224597e-04                           (NR   MIcro)
    6     dE    -3.597636e-08     3.653563e-04                           (NR   MIcro)
    6     dE    -6.084726e-08     4.537045e-04                           (NR   MIcro)
    6     dE    -8.473695e-08     4.148545e-04                           (NR   MIcro)
    6     dE    -1.059695e-07     2.206843e-04                           (NR   MIcro)
    6     dE    -1.102168e-07     1.210153e-04                           (NR   MIcro)
    6     dE    -1.115712e-07     8.854366e-05                           (NR   MIcro)
    6     dE    -1.121975e-07     7.275955e-05                           (NR   MIcro)
    6     dE    -1.124947e-07     2.847911e-05                           (NR   MIcro)
    6     dE    -1.125225e-07     9.958487e-06                           (NR   MIcro)
    6     dE    -1.125264e-07     5.192057e-06                           (NR   MIcro)
    6     dE    -1.125279e-07     5.327171e-06                           (NR   MIcro)
    6     dE    -1.125293e-07     7.386185e-06                           (NR   MIcro)
    6     dE    -1.125357e-07     1.516624e-05                           (NR   MIcro)
    7       -769.824826220087     2.421947e-05                           (NR   MAcro)
    7     dE    -4.205309e-11     1.441968e-05                           (NR   MIcro)
    7     dE    -7.871565e-11     9.501442e-06                           (NR   MIcro)
    7     dE    -1.017420e-10     1.663484e-05                           (NR   MIcro)
    7     dE    -2.122763e-10     2.524152e-05                           (NR   MIcro)
    7     dE    -2.757035e-10     1.639628e-05                           (NR   MIcro)
    7     dE    -3.017530e-10     1.033401e-05                           (NR   MIcro)
    7     dE    -3.188339e-10     7.702196e-06                           (NR   MIcro)
    7     dE    -3.238217e-10     5.729697e-06                           (NR   MIcro)
    7     dE    -3.269551e-10     2.549618e-06                           (NR   MIcro)
    7     dE    -3.273287e-10     1.644169e-06                           (NR   MIcro)
    7     dE    -3.275317e-10     4.706670e-07                           (NR   MIcro)
    8       -769.824826220599     8.075449e-07                           (NR   MAcro)

               *****************************************************
               *                     SUCCESS                       *
               *           SCF CONVERGED AFTER 109 CYCLES          *
               *****************************************************

Old exchange energy                            =    -17.672637390 Eh
New exchange energy                            =    -17.672680014 Eh
Exchange energy change after final integration =     -0.000042624 Eh
Total energy after final integration           =   -769.824868845 Eh
Final COS-X integration done in                =     4.144 sec

----------------
TOTAL SCF ENERGY
----------------

Total Energy       :         -769.82486884 Eh          -20947.99966 eV

Components:
Nuclear Repulsion  :          794.19567453 Eh           21611.16299 eV
Electronic Energy  :        -1564.02054337 Eh          -42559.16265 eV
One Electron Energy:        -2659.92259317 Eh          -72380.17350 eV
Two Electron Energy:         1095.90204979 Eh           29821.01085 eV
Max COSX asymmetry :            0.00005491 Eh               0.00149 eV

Virial components:
Potential Energy   :        -1474.70103237 Eh          -40128.65519 eV
Kinetic Energy     :          704.87616353 Eh           19180.65554 eV
Virial Ratio       :            2.09214201


DFT components:
N(Alpha)           :       50.000330715267 electrons
N(Beta)            :       50.000330715267 electrons
N(Total)           :      100.000661430534 electrons
E(X)               :      -70.830667848632 Eh       
E(C)               :       -4.150754647046 Eh       
E(XC)              :      -74.981422495678 Eh       
DFET-embed. en.    :        0.000000000000 Eh       

---------------
SCF CONVERGENCE
---------------

  Last Energy change         ...   -5.1239e-10  Tolerance :   1.0000e-08
  Last Orbital Gradient      ...    8.0754e-07  Tolerance :   1.0000e-05
  Last Orbital Rotation      ...    3.3946e-04

             **** THE GBW FILE WAS UPDATED (OsCO6.gbw) ****
             **** DENSITY OsCO6.scfp WAS UPDATED ****
             **** ENERGY FILE WAS UPDATED (OsCO6.en.tmp) ****
             **** THE GBW FILE WAS UPDATED (OsCO6.gbw) ****
             **** DENSITY OsCO6.scfp WAS UPDATED ****
----------------
ORBITAL ENERGIES
----------------

  NO   OCC          E(Eh)            E(eV) 
   0   2.0000     -19.244332      -523.6649 
   1   2.0000     -19.244259      -523.6629 
   2   2.0000     -19.244162      -523.6603 
   3   2.0000     -19.244073      -523.6578 
   4   2.0000     -19.243970      -523.6550 
   5   2.0000     -19.243904      -523.6533 
   6   2.0000     -10.320236      -280.8279 
   7   2.0000     -10.320197      -280.8268 
   8   2.0000     -10.320150      -280.8255 
   9   2.0000     -10.320086      -280.8238 
  10   2.0000     -10.320045      -280.8227 
  11   2.0000     -10.319966      -280.8206 
  12   2.0000      -3.550465       -96.6131 
  13   2.0000      -1.975805       -53.7644 
  14   2.0000      -1.975792       -53.7640 
  15   2.0000      -1.975546       -53.7573 
  16   2.0000      -1.158458       -31.5232 
  17   2.0000      -1.157964       -31.5098 
  18   2.0000      -1.157811       -31.5056 
  19   2.0000      -1.157704       -31.5027 
  20   2.0000      -1.157658       -31.5015 
  21   2.0000      -1.157529       -31.4980 
  22   2.0000      -0.629323       -17.1248 
  23   2.0000      -0.587973       -15.9996 
  24   2.0000      -0.587846       -15.9961 
  25   2.0000      -0.576792       -15.6953 
  26   2.0000      -0.576295       -15.6818 
  27   2.0000      -0.576170       -15.6784 
  28   2.0000      -0.531906       -14.4739 
  29   2.0000      -0.514755       -14.0072 
  30   2.0000      -0.514648       -14.0043 
  31   2.0000      -0.502491       -13.6735 
  32   2.0000      -0.502428       -13.6718 
  33   2.0000      -0.501182       -13.6378 
  34   2.0000      -0.494237       -13.4489 
  35   2.0000      -0.494141       -13.4463 
  36   2.0000      -0.493637       -13.4325 
  37   2.0000      -0.485514       -13.2115 
  38   2.0000      -0.484154       -13.1745 
  39   2.0000      -0.484049       -13.1716 
  40   2.0000      -0.480674       -13.0798 
  41   2.0000      -0.479357       -13.0440 
  42   2.0000      -0.479282       -13.0419 
  43   2.0000      -0.440351       -11.9825 
  44   2.0000      -0.440223       -11.9791 
  45   2.0000      -0.440197       -11.9784 
  46   2.0000      -0.331572        -9.0225 
  47   2.0000      -0.331540        -9.0217 
  48   2.0000      -0.330900        -9.0043 
  49   2.0000      -0.111320        -3.0292 
  50   0.0000      -0.076220        -2.0741 
  51   0.0000      -0.076214        -2.0739 
  52   0.0000      -0.053120        -1.4455 
  53   0.0000      -0.053043        -1.4434 
  54   0.0000      -0.049899        -1.3578 
  55   0.0000      -0.029593        -0.8053 
  56   0.0000      -0.029542        -0.8039 
  57   0.0000      -0.029463        -0.8017 
  58   0.0000      -0.027299        -0.7428 
  59   0.0000      -0.027212        -0.7405 
  60   0.0000      -0.010195        -0.2774 
  61   0.0000      -0.010090        -0.2746 
  62   0.0000      -0.005879        -0.1600 
  63   0.0000       0.005317         0.1447 
  64   0.0000       0.042976         1.1694 
  65   0.0000       0.042981         1.1696 
  66   0.0000       0.044408         1.2084 
  67   0.0000       0.066576         1.8116 
  68   0.0000       0.066615         1.8127 
  69   0.0000       0.075905         2.0655 
  70   0.0000       0.075923         2.0660 
  71   0.0000       0.076898         2.0925 
  72   0.0000       0.093610         2.5473 
  73   0.0000       0.093642         2.5481 
  74   0.0000       0.093658         2.5486 
  75   0.0000       0.099153         2.6981 
  76   0.0000       0.115534         3.1438 
  77   0.0000       0.116734         3.1765 
  78   0.0000       0.116740         3.1767 
  79   0.0000       0.143560         3.9065 
  80   0.0000       0.159558         4.3418 
  81   0.0000       0.160148         4.3578 
  82   0.0000       0.160182         4.3588 
  83   0.0000       0.165003         4.4899 
  84   0.0000       0.165033         4.4908 
  85   0.0000       0.175625         4.7790 
  86   0.0000       0.176407         4.8003 
  87   0.0000       0.176469         4.8020 
  88   0.0000       0.236511         6.4358 
  89   0.0000       0.258165         7.0250 
  90   0.0000       0.258209         7.0262 
  91   0.0000       0.258255         7.0275 
  92   0.0000       0.270337         7.3563 
  93   0.0000       0.270350         7.3566 
  94   0.0000       0.283494         7.7143 
  95   0.0000       0.284592         7.7441 
  96   0.0000       0.284605         7.7445 
  97   0.0000       0.290634         7.9086 
  98   0.0000       0.290785         7.9127 
  99   0.0000       0.290793         7.9129 
 100   0.0000       0.315948         8.5974 
 101   0.0000       0.316036         8.5998 
 102   0.0000       0.316126         8.6022 
 103   0.0000       0.321345         8.7442 
 104   0.0000       0.352558         9.5936 
 105   0.0000       0.352620         9.5953 
 106   0.0000       0.363263         9.8849 
 107   0.0000       0.363286         9.8855 
 108   0.0000       0.387895        10.5552 
 109   0.0000       0.403990        10.9931 
 110   0.0000       0.404142        10.9973 
 111   0.0000       0.404533        11.0079 
 112   0.0000       0.423910        11.5352 
 113   0.0000       0.433732        11.8024 
 114   0.0000       0.433940        11.8081 
 115   0.0000       0.433996        11.8096 
 116   0.0000       0.447507        12.1773 
 117   0.0000       0.448297        12.1988 
 118   0.0000       0.448368        12.2007 
 119   0.0000       0.457531        12.4501 
 120   0.0000       0.457564        12.4509 
 121   0.0000       0.458271        12.4702 
 122   0.0000       0.462132        12.5753 
 123   0.0000       0.464285        12.6338 
 124   0.0000       0.464318        12.6347 
 125   0.0000       0.474395        12.9090 
 126   0.0000       0.474418        12.9096 
 127   0.0000       0.490668        13.3518 
 128   0.0000       0.490771        13.3545 
 129   0.0000       0.491491        13.3742 
 130   0.0000       0.507381        13.8065 
 131   0.0000       0.527382        14.3508 
 132   0.0000       0.527466        14.3531 
 133   0.0000       0.528505        14.3813 
 134   0.0000       0.546742        14.8776 
 135   0.0000       0.567068        15.4307 
 136   0.0000       0.567793        15.4504 
 137   0.0000       0.567853        15.4521 
 138   0.0000       0.568187        15.4612 
 139   0.0000       0.568222        15.4621 
 140   0.0000       0.570850        15.5336 
 141   0.0000       0.602225        16.3874 
 142   0.0000       0.602380        16.3916 
 143   0.0000       0.602657        16.3991 
 144   0.0000       0.609659        16.5897 
 145   0.0000       0.609745        16.5920 
 146   0.0000       0.611812        16.6483 
 147   0.0000       0.611966        16.6524 
 148   0.0000       0.612104        16.6562 
 149   0.0000       0.651485        17.7278 
 150   0.0000       0.652632        17.7590 
 151   0.0000       0.652672        17.7601 
 152   0.0000       0.653983        17.7958 
 153   0.0000       0.654928        17.8215 
 154   0.0000       0.655015        17.8239 
 155   0.0000       0.656273        17.8581 
 156   0.0000       0.656368        17.8607 
 157   0.0000       0.717356        19.5202 
 158   0.0000       0.742002        20.1909 
 159   0.0000       0.742923        20.2160 
 160   0.0000       0.743107        20.2210 
 161   0.0000       0.744306        20.2536 
 162   0.0000       0.744360        20.2551 
 163   0.0000       0.782775        21.3004 
 164   0.0000       0.806585        21.9483 
 165   0.0000       0.806709        21.9517 
 166   0.0000       0.808065        21.9886 
 167   0.0000       0.837381        22.7863 
 168   0.0000       0.837387        22.7865 
 169   0.0000       0.837787        22.7973 
 170   0.0000       0.858231        23.3536 
 171   0.0000       0.882967        24.0268 
 172   0.0000       0.883006        24.0278 
 173   0.0000       0.920635        25.0517 
 174   0.0000       0.921735        25.0817 
 175   0.0000       0.921765        25.0825 
 176   0.0000       0.936602        25.4862 
 177   0.0000       0.936748        25.4902 
 178   0.0000       0.937231        25.5033 
 179   0.0000       0.948896        25.8208 
 180   0.0000       0.948983        25.8231 
 181   0.0000       0.955101        25.9896 
 182   0.0000       0.955156        25.9911 
 183   0.0000       0.957584        26.0572 
 184   0.0000       0.962297        26.1854 
 185   0.0000       1.040616        28.3166 
 186   0.0000       1.042751        28.3747 
 187   0.0000       1.042782        28.3755 
 188   0.0000       1.097522        29.8651 
 189   0.0000       1.195154        32.5218 
 190   0.0000       1.210273        32.9332 
 191   0.0000       1.210309        32.9342 
 192   0.0000       1.215421        33.0733 
 193   0.0000       1.215687        33.0805 
 194   0.0000       1.215947        33.0876 
 195   0.0000       1.315640        35.8004 
 196   0.0000       1.316144        35.8141 
 197   0.0000       1.316167        35.8147 
 198   0.0000       1.332669        36.2638 
 199   0.0000       1.332713        36.2650 
 200   0.0000       1.403843        38.2005 
 201   0.0000       1.418905        38.6104 
 202   0.0000       1.419002        38.6130 
 203   0.0000       1.419123        38.6163 
 204   0.0000       1.505031        40.9540 
 205   0.0000       1.505880        40.9771 
 206   0.0000       1.507276        41.0151 
 207   0.0000       1.507302        41.0158 
 208   0.0000       1.507526        41.0219 
 209   0.0000       1.507616        41.0243 
 210   0.0000       1.523587        41.4589 
 211   0.0000       1.523680        41.4614 
 212   0.0000       1.529294        41.6142 
 213   0.0000       1.529317        41.6148 
 214   0.0000       1.531503        41.6743 
 215   0.0000       1.544211        42.0201 
 216   0.0000       1.544455        42.0267 
 217   0.0000       1.545458        42.0541 
 218   0.0000       1.590694        43.2850 
 219   0.0000       1.590818        43.2884 
 220   0.0000       1.590919        43.2911 
 221   0.0000       1.742455        47.4146 
 222   0.0000       1.742602        47.4186 
 223   0.0000       1.742830        47.4248 
 224   0.0000       1.750735        47.6399 
 225   0.0000       1.759003        47.8649 
 226   0.0000       1.759117        47.8680 
 227   0.0000       1.781917        48.4884 
 228   0.0000       1.782535        48.5052 
 229   0.0000       1.782565        48.5061 
 230   0.0000       1.823497        49.6199 
 231   0.0000       1.861645        50.6579 
 232   0.0000       1.864388        50.7326 
 233   0.0000       1.864413        50.7333 
 234   0.0000       1.926149        52.4132 
 235   0.0000       1.926209        52.4148 
 236   0.0000       1.936491        52.6946 
 237   0.0000       1.936551        52.6962 
 238   0.0000       1.939820        52.7852 
 239   0.0000       1.944834        52.9216 
 240   0.0000       1.947418        52.9919 
 241   0.0000       1.947645        52.9981 
 242   0.0000       1.962352        53.3983 
 243   0.0000       1.962479        53.4018 
 244   0.0000       1.965771        53.4913 
 245   0.0000       2.028144        55.1886 
 246   0.0000       2.028637        55.2020 
 247   0.0000       2.029035        55.2128 
 248   0.0000       2.053525        55.8793 
 249   0.0000       2.087116        56.7933 
 250   0.0000       2.087240        56.7967 
 251   0.0000       2.466703        67.1224 
 252   0.0000       2.495096        67.8950 
 253   0.0000       2.495268        67.8997 
 254   0.0000       2.498146        67.9780 
 255   0.0000       2.782805        75.7240 
 256   0.0000       2.785513        75.7977 
 257   0.0000       2.785689        75.8025 
 258   0.0000       2.785821        75.8060 
 259   0.0000       2.798717        76.1570 
 260   0.0000       2.798737        76.1575 
 261   0.0000       2.813182        76.5506 
 262   0.0000       2.813520        76.5598 
 263   0.0000       2.813606        76.5621 
 264   0.0000       2.819669        76.7271 
 265   0.0000       2.819834        76.7316 
 266   0.0000       2.851408        77.5908 
 267   0.0000       2.851493        77.5931 
 268   0.0000       2.868427        78.0539 
 269   0.0000       2.936536        79.9072 
 270   0.0000       3.063049        83.3498 
 271   0.0000       3.063341        83.3578 
 272   0.0000       3.063390        83.3591 
 273   0.0000       3.167145        86.1824 
 274   0.0000       3.170019        86.2606 
 275   0.0000       3.170060        86.2617 
 276   0.0000       3.213441        87.4422 
 277   0.0000       3.216235        87.5182 
 278   0.0000       3.216358        87.5215 
 279   0.0000       3.274489        89.1034 
 280   0.0000       3.274539        89.1047 
 281   0.0000       3.277663        89.1898 
 282   0.0000       3.285371        89.3995 
 283   0.0000       3.285381        89.3997 
 284   0.0000       3.288679        89.4895 
 285   0.0000       3.780681       102.8776 
 286   0.0000       3.794030       103.2408 
 287   0.0000       3.794180       103.2449 
 288   0.0000       3.829297       104.2005 
 289   0.0000       3.829554       104.2075 
 290   0.0000       3.829654       104.2102 
 291   0.0000      62.542439      1701.8663 
 292   0.0000     432.640931     11772.7582 

                    ********************************
                    * MULLIKEN POPULATION ANALYSIS *
                    ********************************

-----------------------
MULLIKEN ATOMIC CHARGES
-----------------------
   0 Os:   -4.333030
   1 C :    1.206592
   2 C :    1.213407
   3 C :    1.206710
   4 C :    1.213630
   5 O :   -0.488254
   6 O :   -0.487505
   7 O :   -0.488444
   8 O :   -0.487587
   9 C :    1.210235
  10 C :    1.210171
  11 O :   -0.488019
  12 O :   -0.487906
Sum of atomic charges:   -0.0000000

--------------------------------
MULLIKEN REDUCED ORBITAL CHARGES
--------------------------------
  0 Oss       :     3.585479  s :     3.585479
      pz      :     3.109127  p :     9.360201
      px      :     3.104468
      py      :     3.146606
      dz2     :     1.107285  d :     7.318295
      dxz     :     1.702398
      dyz     :     1.700167
      dx2y2   :     1.108006
      dxy     :     1.700440
      f0      :     0.022171  f :     0.069055
      f+1     :     0.008726
      f-1     :     0.008699
      f+2     :     0.001371
      f-2     :     0.000004
      f+3     :     0.014512
      f-3     :     0.013572
  1 C s       :     2.564141  s :     2.564141
      pz      :     0.632208  p :     2.180138
      px      :     0.904854
      py      :     0.643077
      dz2     :     0.009788  d :     0.049128
      dxz     :     0.005210
      dyz     :    -0.000131
      dx2y2   :     0.027946
      dxy     :     0.006315
  2 C s       :     2.559716  s :     2.559716
      pz      :     0.635591  p :     2.177581
      px      :     0.633357
      py      :     0.908633
      dz2     :     0.010121  d :     0.049296
      dxz     :    -0.000113
      dyz     :     0.005050
      dx2y2   :     0.029355
      dxy     :     0.004883
  3 C s       :     2.563896  s :     2.563896
      pz      :     0.632100  p :     2.180246
      px      :     0.904711
      py      :     0.643435
      dz2     :     0.009783  d :     0.049148
      dxz     :     0.005179
      dyz     :    -0.000131
      dx2y2   :     0.027954
      dxy     :     0.006364
  4 C s       :     2.559437  s :     2.559437
      pz      :     0.635497  p :     2.177656
      px      :     0.633661
      py      :     0.908498
      dz2     :     0.010103  d :     0.049277
      dxz     :    -0.000114
      dyz     :     0.005006
      dx2y2   :     0.029363
      dxy     :     0.004920
  5 O s       :     4.059928  s :     4.059928
      pz      :     1.518016  p :     4.360757
      px      :     1.517103
      py      :     1.325637
      dz2     :     0.004128  d :     0.067569
      dxz     :     0.000136
      dyz     :     0.025476
      dx2y2   :     0.012382
      dxy     :     0.025446
  6 O s       :     4.059327  s :     4.059327
      pz      :     1.515905  p :     4.360620
      px      :     1.324724
      py      :     1.519991
      dz2     :     0.004093  d :     0.067559
      dxz     :     0.025438
      dyz     :     0.000127
      dx2y2   :     0.012318
      dxy     :     0.025582
  7 O s       :     4.060007  s :     4.060007
      pz      :     1.518024  p :     4.360877
      px      :     1.517249
      py      :     1.325604
      dz2     :     0.004124  d :     0.067559
      dxz     :     0.000136
      dyz     :     0.025476
      dx2y2   :     0.012372
      dxy     :     0.025452
  8 O s       :     4.059329  s :     4.059329
      pz      :     1.515873  p :     4.360702
      px      :     1.324724
      py      :     1.520104
      dz2     :     0.004091  d :     0.067556
      dxz     :     0.025436
      dyz     :     0.000128
      dx2y2   :     0.012316
      dxy     :     0.025586
  9 C s       :     2.561574  s :     2.561574
      pz      :     0.904196  p :     2.178960
      px      :     0.630654
      py      :     0.644111
      dz2     :     0.037346  d :     0.049231
      dxz     :     0.005163
      dyz     :     0.006430
      dx2y2   :     0.000430
      dxy     :    -0.000139
 10 C s       :     2.561849  s :     2.561849
      pz      :     0.904382  p :     2.178773
      px      :     0.630547
      py      :     0.643845
      dz2     :     0.037364  d :     0.049207
      dxz     :     0.005153
      dyz     :     0.006399
      dx2y2   :     0.000429
      dxy     :    -0.000138
 11 O s       :     4.059670  s :     4.059670
      pz      :     1.324892  p :     4.360788
      px      :     1.515370
      py      :     1.520526
      dz2     :     0.016414  d :     0.067560
      dxz     :     0.025421
      dyz     :     0.025599
      dx2y2   :    -0.000003
      dxy     :     0.000129
 12 O s       :     4.059636  s :     4.059636
      pz      :     1.324897  p :     4.360713
      px      :     1.515354
      py      :     1.520462
      dz2     :     0.016419  d :     0.067558
      dxz     :     0.025419
      dyz     :     0.025596
      dx2y2   :    -0.000004
      dxy     :     0.000128


                     *******************************
                     * LOEWDIN POPULATION ANALYSIS *
                     *******************************

----------------------
LOEWDIN ATOMIC CHARGES
----------------------
   0 Os:    0.144891
   1 C :    0.090053
   2 C :    0.090686
   3 C :    0.089971
   4 C :    0.090631
   5 O :   -0.114108
   6 O :   -0.114749
   7 O :   -0.114245
   8 O :   -0.114840
   9 C :    0.090274
  10 C :    0.090404
  11 O :   -0.114542
  12 O :   -0.114426

-------------------------------
LOEWDIN REDUCED ORBITAL CHARGES
-------------------------------
  0 Oss       :     2.105403  s :     2.105403
      pz      :     2.347518  p :     7.044746
      px      :     2.347268
      py      :     2.349959
      dz2     :     1.000724  d :     6.559738
      dxz     :     1.520445
      dyz     :     1.518600
      dx2y2   :     1.001113
      dxy     :     1.518856
      f0      :     0.047028  f :     0.145222
      f+1     :     0.018278
      f-1     :     0.018228
      f+2     :     0.002358
      f-2     :     0.000007
      f+3     :     0.030537
      f-3     :     0.028787
  1 C s       :     2.958976  s :     2.958976
      pz      :     0.630749  p :     2.323986
      px      :     1.054462
      py      :     0.638775
      dz2     :     0.065538  d :     0.626984
      dxz     :     0.193959
      dyz     :     0.008387
      dx2y2   :     0.163560
      dxy     :     0.195540
  2 C s       :     2.959757  s :     2.959757
      pz      :     0.633663  p :     2.322823
      px      :     0.631994
      py      :     1.057166
      dz2     :     0.065788  d :     0.626733
      dxz     :     0.008443
      dyz     :     0.194324
      dx2y2   :     0.164163
      dxy     :     0.194015
  3 C s       :     2.958931  s :     2.958931
      pz      :     0.630689  p :     2.324075
      px      :     1.054362
      py      :     0.639025
      dz2     :     0.065548  d :     0.627022
      dxz     :     0.193931
      dyz     :     0.008394
      dx2y2   :     0.163550
      dxy     :     0.195599
  4 C s       :     2.959732  s :     2.959732
      pz      :     0.633617  p :     2.322877
      px      :     0.632183
      py      :     1.057077
      dz2     :     0.065797  d :     0.626760
      dxz     :     0.008440
      dyz     :     0.194294
      dx2y2   :     0.164157
      dxy     :     0.194071
  5 O s       :     3.483332  s :     3.483332
      pz      :     1.418061  p :     4.407866
      px      :     1.417067
      py      :     1.572738
      dz2     :     0.028968  d :     0.222910
      dxz     :     0.000052
      dyz     :     0.053771
      dx2y2   :     0.086781
      dxy     :     0.053337
  6 O s       :     3.483302  s :     3.483302
      pz      :     1.415678  p :     4.408237
      px      :     1.572353
      py      :     1.420206
      dz2     :     0.028765  d :     0.223210
      dxz     :     0.053139
      dyz     :     0.000023
      dx2y2   :     0.085829
      dxy     :     0.055453
  7 O s       :     3.483379  s :     3.483379
      pz      :     1.418074  p :     4.407938
      px      :     1.417199
      py      :     1.572665
      dz2     :     0.028964  d :     0.222929
      dxz     :     0.000051
      dyz     :     0.053759
      dx2y2   :     0.086764
      dxy     :     0.053392
  8 O s       :     3.483313  s :     3.483313
      pz      :     1.415651  p :     4.408292
      px      :     1.572306
      py      :     1.420336
      dz2     :     0.028762  d :     0.223235
      dxz     :     0.053121
      dyz     :     0.000025
      dx2y2   :     0.085799
      dxy     :     0.055528
  9 C s       :     2.959330  s :     2.959330
      pz      :     1.054427  p :     2.323507
      px      :     0.629538
      py      :     0.639542
      dz2     :     0.212558  d :     0.626888
      dxz     :     0.193737
      dyz     :     0.195673
      dx2y2   :     0.016525
      dxy     :     0.008396
 10 C s       :     2.959388  s :     2.959388
      pz      :     1.054554  p :     2.323348
      px      :     0.629456
      py      :     0.639338
      dz2     :     0.212577  d :     0.626861
      dxz     :     0.193731
      dyz     :     0.195643
      dx2y2   :     0.016520
      dxy     :     0.008390
 11 O s       :     3.483332  s :     3.483332
      pz      :     1.572360  p :     4.408120
      px      :     1.415015
      py      :     1.420745
      dz2     :     0.114477  d :     0.223090
      dxz     :     0.052856
      dyz     :     0.055679
      dx2y2   :     0.000049
      dxy     :     0.000029
 12 O s       :     3.483336  s :     3.483336
      pz      :     1.572394  p :     4.408045
      px      :     1.414992
      py      :     1.420659
      dz2     :     0.114524  d :     0.223045
      dxz     :     0.052831
      dyz     :     0.055616
      dx2y2   :     0.000047
      dxy     :     0.000027


                      *****************************
                      * MAYER POPULATION ANALYSIS *
                      *****************************

  NA   - Mulliken gross atomic population
  ZA   - Total nuclear charge
  QA   - Mulliken gross atomic charge
  VA   - Mayer's total valence
  BVA  - Mayer's bonded valence
  FA   - Mayer's free valence

  ATOM       NA         ZA         QA         VA         BVA        FA
  0 Os    20.3330    16.0000    -4.3330     7.4359     7.4359     0.0000
  1 C      4.7934     6.0000     1.2066     2.6822     2.6822    -0.0000
  2 C      4.7866     6.0000     1.2134     2.6544     2.6544    -0.0000
  3 C      4.7933     6.0000     1.2067     2.6820     2.6820    -0.0000
  4 C      4.7864     6.0000     1.2136     2.6541     2.6541    -0.0000
  5 O      8.4883     8.0000    -0.4883     2.5603     2.5603    -0.0000
  6 O      8.4875     8.0000    -0.4875     2.5579     2.5579    -0.0000
  7 O      8.4884     8.0000    -0.4884     2.5601     2.5601    -0.0000
  8 O      8.4876     8.0000    -0.4876     2.5581     2.5581    -0.0000
  9 C      4.7898     6.0000     1.2102     2.6679     2.6679    -0.0000
 10 C      4.7898     6.0000     1.2102     2.6681     2.6681    -0.0000
 11 O      8.4880     8.0000    -0.4880     2.5592     2.5592    -0.0000
 12 O      8.4879     8.0000    -0.4879     2.5591     2.5591    -0.0000

  Mayer bond orders larger than 0.100000
B(  0-Os,  1-C ) :   0.7521 B(  0-Os,  2-C ) :   0.7328 B(  0-Os,  3-C ) :   0.7517 
B(  0-Os,  4-C ) :   0.7326 B(  0-Os,  5-O ) :   0.4985 B(  0-Os,  6-O ) :   0.4955 
B(  0-Os,  7-O ) :   0.4986 B(  0-Os,  8-O ) :   0.4957 B(  0-Os,  9-C ) :   0.7420 
B(  0-Os, 10-C ) :   0.7423 B(  0-Os, 11-O ) :   0.4972 B(  0-Os, 12-O ) :   0.4970 
B(  1-C ,  4-C ) :  -0.1232 B(  1-C ,  6-O ) :   1.9710 B(  1-C , 10-C ) :  -0.1213 
B(  2-C ,  3-C ) :  -0.1231 B(  2-C ,  5-O ) :   1.9694 B(  2-C , 10-C ) :  -0.1253 
B(  3-C ,  8-O ) :   1.9710 B(  3-C ,  9-C ) :  -0.1211 B(  4-C ,  7-O ) :   1.9690 
B(  4-C ,  9-C ) :  -0.1251 B(  9-C , 11-O ) :   1.9701 B( 10-C , 12-O ) :   1.9702 


-------
TIMINGS
-------

Total SCF time: 0 days 0 hours 2 min 39 sec 

Total time                  ....     159.508 sec
Sum of individual times     ....     153.985 sec  ( 96.5%)

Fock matrix formation       ....     147.246 sec  ( 92.3%)
  Split-RI-J                ....      18.425 sec  ( 12.5% of F)
  Chain of spheres X        ....     101.999 sec  ( 69.3% of F)
  XC integration            ....      25.246 sec  ( 17.1% of F)
    Basis function eval.    ....       3.549 sec  ( 14.1% of XC)
    Density eval.           ....       9.630 sec  ( 38.1% of XC)
    XC-Functional eval.     ....       0.340 sec  (  1.3% of XC)
    XC-Potential eval.      ....       5.732 sec  ( 22.7% of XC)
Diagonalization             ....       1.028 sec  (  0.6%)
Density matrix formation    ....       0.173 sec  (  0.1%)
Population analysis         ....       0.078 sec  (  0.0%)
Initial guess               ....       1.576 sec  (  1.0%)
Orbital Transformation      ....       1.406 sec  (  0.9%)
Orbital Orthonormalization  ....       0.000 sec  (  0.0%)
DIIS solution               ....       0.698 sec  (  0.4%)
Grid generation             ....       1.777 sec  (  1.1%)

Maximum memory used throughout the entire SCF-calculation: 77.3 MB

-------------------------   --------------------
FINAL SINGLE POINT ENERGY      -769.824868844652
-------------------------   --------------------



           ************************************************************
           *        Program running with 8 parallel MPI-processes     *
           *              working on a common directory               *
           ************************************************************
------------------------------------------------------------------------------
                         ORCA SCF GRADIENT CALCULATION
------------------------------------------------------------------------------

 ... reading COSX grid (gridx3)
Gradient of the Kohn-Sham DFT energy:
Kohn-Sham wavefunction type      ... RKS
Hartree-Fock exchange scaling    ...    0.200
Number of operators              ...    1
Number of atoms                  ...   13
Basis set dimensions             ...  293
Integral neglect threshold       ... 2.5e-11
Integral primitive cutoff        ... 2.5e-12
SHARK Integral package           ... ON

Nuc. rep. gradient       (SHARK) ... done (  0.0 sec)
HCore & Overlap gradient (SHARK) ... done (  0.1 sec)
ECP gradient             (SHARK) ... done (  1.9 sec)
RI-J gradient            (SHARK) ... done (  0.8 sec)
COSX-gradient                    ... done (  5.4 sec)
Exchange-correlation gradient    ... done

------------------
[...]
Current Energy                          ....  -769.954821942 Eh
Current gradient norm                   ....     0.004758248 Eh/bohr
Maximum allowed component of the step   ....  0.300
Current trust radius                    ....  0.300
Updating the Hessian (BFGS)             .... done
Forming the augmented Hessian           .... done
Diagonalizing the augmented Hessian     .... done
Last element of RFO vector              ....  0.998574492
Lowest eigenvalues of augmented Hessian:
 -0.000099181  0.000949147  0.016753607  0.066394172  0.069778337
Length of the computed step             ....  0.053452079
The final length of the internal step   ....  0.053452079
Converting the step to cartesian space:
 Initial RMS(Int)=    0.0089086798
Transforming coordinates:
 Iter   0:  RMS(Cart)=    0.0387344711 RMS(Int)=    0.0087431335
 Iter   1:  RMS(Cart)=    0.0006919597 RMS(Int)=    0.0005484687
 Iter   2:  RMS(Cart)=    0.0003233488 RMS(Int)=    0.0002483967
 Iter   3:  RMS(Cart)=    0.0001609445 RMS(Int)=    0.0001240187
 Iter   4:  RMS(Cart)=    0.0000804476 RMS(Int)=    0.0000619310
 Iter   5:  RMS(Cart)=    0.0000402211 RMS(Int)=    0.0000309299
 Iter   6:  RMS(Cart)=    0.0000201111 RMS(Int)=    0.0000154491
 Iter   7:  RMS(Cart)=    0.0000100569 RMS(Int)=    0.0000077176
 Iter   8:  RMS(Cart)=    0.0000050297 RMS(Int)=    0.0000038558
 Iter   9:  RMS(Cart)=    0.0000025158 RMS(Int)=    0.0000019267
 Iter  10:  RMS(Cart)=    0.0000012585 RMS(Int)=    0.0000009629
 Iter  11:  RMS(Cart)=    0.0000006296 RMS(Int)=    0.0000004813
 Iter  12:  RMS(Cart)=    0.0000003150 RMS(Int)=    0.0000002406
 Iter  13:  RMS(Cart)=    0.0000001577 RMS(Int)=    0.0000001203
 Iter  14:  RMS(Cart)=    0.0000000789 RMS(Int)=    0.0000000601
done
Storing new coordinates                 .... done

                                .--------------------.
          ----------------------|Geometry convergence|-------------------------
          Item                value                   Tolerance       Converged
          ---------------------------------------------------------------------
          Energy change      -0.0001549170            0.0000050000      NO
          RMS gradient        0.0006684990            0.0001000000      NO
          MAX gradient        0.0022021181            0.0003000000      NO
          RMS step            0.0089086798            0.0020000000      NO
          MAX step            0.0227565344            0.0040000000      NO
          ........................................................
          Max(Bonds)      0.0091      Max(Angles)    1.30
          Max(Dihed)        0.00      Max(Improp)    0.00
          ---------------------------------------------------------------------

The optimization has not yet converged - more geometry cycles are needed


    ---------------------------------------------------------------------------
                         Redundant Internal Coordinates
                            (Angstroem and degrees)

        Definition                    Value    dE/dq     Step     New-Value
    ----------------------------------------------------------------------------
     1. B(C   1,Os  0)                1.9792 -0.000066  0.0006    1.9798   
     2. B(C   2,Os  0)                4.9790  0.000034  0.0091    4.9880   
     3. B(C   3,Os  0)                1.9824  0.000347 -0.0018    1.9807   
     4. B(C   4,Os  0)                1.9717 -0.000312  0.0013    1.9730   
     5. B(O   5,C   2)                1.1312  0.000169  0.0001    1.1312   
     6. B(O   6,C   1)                1.1490  0.000081  0.0001    1.1491   
     7. B(O   7,C   4)                1.1479  0.000721  0.0001    1.1479   
     8. B(O   8,C   3)                1.1487 -0.000009  0.0000    1.1487   
     9. B(C   9,Os  0)                1.9885 -0.000074  0.0007    1.9892   
    10. B(C  10,Os  0)                1.9906 -0.000027  0.0001    1.9907   
    11. B(O  11,C   9)                1.1429  0.000801 -0.0005    1.1424   
    12. B(O  12,C  10)                1.1425  0.000674 -0.0002    1.1423   
    13. A(C   3,Os  0,C   9)           89.40  0.000311    0.23     89.64   
    14. A(C   2,Os  0,C   9)           99.52 -0.000226    0.22     99.74   
    15. A(C   1,Os  0,C  10)           89.38  0.000834    0.01     89.39   
    16. A(C   4,Os  0,C  10)           92.53  0.000100   -0.38     92.15   
    17. A(C   2,Os  0,C  10)           75.46 -0.001036    1.24     76.69   
    18. A(C   4,Os  0,C   9)           92.52  0.001164   -1.09     91.43   
    19. A(C   3,Os  0,C  10)           88.73 -0.000822    0.03     88.76   
    20. A(C   3,Os  0,C   4)          115.59  0.000015    0.42    116.01   
    21. A(C   1,Os  0,C   2)           68.32  0.000149   -1.22     67.11   
    22. A(C   2,Os  0,C   3)           62.15  0.000060   -0.61     61.54   
    23. A(C   1,Os  0,C   4)          115.18 -0.000021    1.30    116.49   
    24. A(C   1,Os  0,C   9)           88.16 -0.001406    0.39     88.55   
    25. L(Os  0,C   1,O   6,C   9, 1) 180.82  0.001161   -0.18    180.64   
    26. L(Os  0,C   1,O   6,C   9, 2) 181.75  0.000467    0.27    182.02   
    27. L(Os  0,C   2,O   5,C   9, 2) 213.03  0.000079   -0.02    213.01   
    28. L(Os  0,C   2,O   5,C   9, 1)  97.10  0.000028   -0.07     97.02   
    29. L(Os  0,C   3,O   8,C   4, 2) 182.06  0.000354   -0.40    181.66   
    30. L(Os  0,C   3,O   8,C   4, 1) 179.65  0.000027    0.01    179.66   
    31. L(Os  0,C   4,O   7,C   3, 2) 177.56 -0.000419   -0.09    177.47   
    32. L(Os  0,C   4,O   7,C   3, 1) 180.39  0.000287   -0.60    179.79   
    33. L(Os  0,C   9,O  11,C   2, 2) 178.07 -0.001149    0.39    178.47   
    34. L(Os  0,C   9,O  11,C   2, 1) 179.22  0.000335    0.41    179.63   
    35. L(Os  0,C  10,O  12,C   4, 2) 180.40  0.000090    0.25    180.65   
    36. L(Os  0,C  10,O  12,C   4, 1) 181.87  0.002202   -0.69    181.18   
    ----------------------------------------------------------------------------

         *************************************************************
         *                GEOMETRY OPTIMIZATION CYCLE  35            *
         *************************************************************
---------------------------------
CARTESIAN COORDINATES (ANGSTROEM)
---------------------------------
  Os    -0.369630    0.161485   -0.018318
  C      1.386224    1.075240   -0.060177
  C     -0.712705    5.065015    0.829123
  C     -2.164889    0.998117   -0.029293
  C     -0.334394   -1.810659    0.029433
  O     -0.128802    5.344398   -0.098602
  O      2.418427    1.580042   -0.071219
  O     -0.317708   -2.958485    0.030168
  O     -3.208764    1.476917   -0.053223
  C     -0.365852    0.164555   -2.007555
  C     -0.367126    0.285936    1.968469
  O     -0.337694    0.175427   -3.149549
  O     -0.374896    0.380702    3.106853

----------------------------
CARTESIAN COORDINATES (A.U.)
----------------------------
  NO LB      ZA    FRAG     MASS         X           Y           Z
   0 Os   16.0000*   0   190.200   -0.698499    0.305163   -0.034616
   1 C     6.0000    0    12.011    2.619583    2.031909   -0.113718
   2 C     6.0000    0    12.011   -1.346818    9.571491    1.566816
   3 C     6.0000    0    12.011   -4.091048    1.886168   -0.055356
   4 C     6.0000    0    12.011   -0.631912   -3.421650    0.055620
   5 O     8.0000    0    15.999   -0.243400   10.099448   -0.186331
   6 O     8.0000    0    15.999    4.570164    2.985846   -0.134584
   7 O     8.0000    0    15.999   -0.600382   -5.590726    0.057009
   8 O     8.0000    0    15.999   -6.063685    2.790969   -0.100577
   9 C     6.0000    0    12.011   -0.691360    0.310964   -3.793729
  10 C     6.0000    0    12.011   -0.693768    0.540341    3.719868
  11 O     8.0000    0    15.999   -0.638148    0.331509   -5.951784
  12 O     8.0000    0    15.999   -0.708450    0.719422    5.871100
* core charge reduced due to ECP

--------------------------------
INTERNAL COORDINATES (ANGSTROEM)
--------------------------------
 Os     0   0   0     0.000000000000     0.00000000     0.00000000
 C      1   0   0     1.979828975484     0.00000000     0.00000000
 C      2   1   0     4.595069477152    89.51529313     0.00000000
 C      1   2   3     1.980664013667   127.50174265    12.48174930
 C      1   2   3     1.973036878220   116.48711983   192.09745154
 O      3   2   1     1.131226264495    79.62716643   233.31885644
 O      2   1   3     1.149081888417   178.42335574   144.07792918
 O      5   1   2     1.147946967524   178.63648677   262.61857195
 O      4   1   2     1.148693503334   179.05765363   109.81849424
 C      1   2   3     1.989242744201    88.65118213   101.12334645
 C      1   2   3     1.990682945244    89.49192279   284.29744184
 O     10   1   2     1.142392710153   178.61860869     8.17569916
 O     11   1   2     1.142347211765   178.73813364    83.95024416

---------------------------
INTERNAL COORDINATES (A.U.)
---------------------------
 Os     0   0   0     0.000000000000     0.00000000     0.00000000
 C      1   0   0     3.741334555667     0.00000000     0.00000000
 C      2   1   0     8.683422878159    89.51529313     0.00000000
 C      1   2   3     3.742912549144   127.50174265    12.48174930
 C      1   2   3     3.728499351962   116.48711983   192.09745154
 O      3   2   1     2.137707835394    79.62716643   233.31885644
 O      2   1   3     2.171450074556   178.42335574   144.07792918
 O      5   1   2     2.169305384886   178.63648677   262.61857195
 O      4   1   2     2.170716133116   179.05765363   109.81849424
 C      1   2   3     3.759124000429    88.65118213   101.12334645
 C      1   2   3     3.761845585980    89.49192279   284.29744184
 O     10   1   2     2.158809359577   178.61860869     8.17569916
 O     11   1   2     2.158723380085   178.73813364    83.95024416



           ************************************************************
           *        Program running with 8 parallel MPI-processes     *
           *              working on a common directory               *
           ************************************************************
------------------------------------------------------------------------------
                   ___                                                        
                  /   \      - P O W E R E D   B Y -                         
                 /     \                                                     
                 |  |  |   _    _      __       _____    __    __             
                 |  |  |  | |  | |    /  \     |  _  \  |  |  /  |          
                  \  \/   | |  | |   /    \    | | | |  |  | /  /          
                 / \  \   | |__| |  /  /\  \   | |_| |  |  |/  /          
                |  |  |   |  __  | /  /__\  \  |    /   |      \           
                |  |  |   | |  | | |   __   |  |    \   |  |\   \          
                \     /   | |  | | |  |  |  |  | |\  \  |  | \   \       
                 \___/    |_|  |_| |__|  |__|  |_| \__\ |__|  \__/        
                                                                              
                      - O R C A' S   B I G   F R I E N D -                    
                                      &                                       
                       - I N T E G R A L  F E E D E R -                       
                                                                              
 v1 FN, 2020, v2 2021                                                         
------------------------------------------------------------------------------


Reading SHARK input file OsCO6.SHARKINP.tmp ... ok
----------------------
SHARK INTEGRAL PACKAGE
----------------------

Number of atoms                             ...     13
Number of basis functions                   ...    293
Number of shells                            ...    115
Maximum angular momentum                    ...      3
Integral batch strategy                     ... SHARK/LIBINT Hybrid
RI-J (if used) integral strategy            ... SPLIT-RIJ (Revised 2003 algorithm where possible)
Printlevel                                  ...      1
Contraction scheme used                     ... SEGMENTED contraction
Coulomb Range Separation                    ... NOT USED
Exchange Range Separation                   ... NOT USED
Finite Nucleus Model                        ... NOT USED
Auxiliary Coulomb fitting basis             ... AVAILABLE
   # of basis functions in Aux-J            ...    677
   # of shells in Aux-J                     ...    203
   Maximum angular momentum in Aux-J        ...      4
Auxiliary J/K fitting basis                 ... NOT available
Auxiliary Correlation fitting basis         ... NOT available
Auxiliary 'external' fitting basis          ... NOT available
Integral threshold                          ...     2.500000e-11
Primitive cut-off                           ...     2.500000e-12
Primitive pair pre-selection threshold      ...     2.500000e-12

Calculating pre-screening integrals         ... done (  0.0 sec) Dimension = 115
Organizing shell pair data                  ... done (  0.1 sec)
Shell pair information
Total number of shell pairs                 ...      6670
Shell pairs after pre-screening             ...      5924
Total number of primitive shell pairs       ...     19084
Primitive shell pairs kept                  ...     12644
          la=0 lb=0:   1250 shell pairs
          la=1 lb=0:   1650 shell pairs
          la=1 lb=1:    561 shell pairs
          la=2 lb=0:   1219 shell pairs
          la=2 lb=1:    817 shell pairs
          la=2 lb=2:    316 shell pairs
          la=3 lb=0:     52 shell pairs
          la=3 lb=1:     33 shell pairs
          la=3 lb=2:     25 shell pairs
          la=3 lb=3:      1 shell pairs

Calculating one electron integrals          ... done (  0.0 sec)
Calculating ECP integrals                   ... done (  0.5 sec)
Calculating RI/J V-Matrix + Cholesky decomp.... done (  0.0 sec)
Calculating Nuclear repulsion               ... done (  0.0 sec) ENN=    746.541981020936 Eh

SHARK setup successfully completed in   0.8 seconds

Maximum memory used throughout the entire GTOINT-calculation: 17.8 MB


           ************************************************************
           *        Program running with 8 parallel MPI-processes     *
           *              working on a common directory               *
           ************************************************************

Diagonalization of the overlap matrix:
Smallest eigenvalue                        ... 1.417e-05
Time for diagonalization                   ...    0.019 sec
Threshold for overlap eigenvalues          ... 1.000e-08
Number of eigenvalues below threshold      ... 0
Time for construction of square roots      ...    0.044 sec
Total time needed                          ...    0.063 sec

-------------------
DFT GRID GENERATION
-------------------

General Integration Accuracy     IntAcc      ... 4.388
Radial Grid Type                 RadialGrid  ... OptM3 with GC (2021)
Angular Grid (max. ang.)         AngularGrid ... 4 (Lebedev-302)
Angular grid pruning method      GridPruning ... 4 (adaptive)
Weight generation scheme         WeightScheme... Becke
Basis function cutoff            BFCut       ... 1.0000e-11
Integration weight cutoff        WCut        ... 1.0000e-14
Angular grids for H and He will be reduced by one unit
Partially contracted basis set               ... off
Rotationally invariant grid construction     ... off

Total number of grid points                  ...    86273
Total number of batches                      ...     1352
Average number of points per batch           ...       63
Average number of grid points per atom       ...     6636
Time for grid setup =    0.606 sec

--------------------
COSX GRID GENERATION
--------------------

GRIDX 1
-------
General Integration Accuracy     IntAcc      ... 3.816
Radial Grid Type                 RadialGrid  ... OptM3 with GC (2021)
Angular Grid (max. ang.)         AngularGrid ... 1 (Lebedev-50)
Angular grid pruning method      GridPruning ... 4 (adaptive)
Weight generation scheme         WeightScheme... Becke
Basis function cutoff            BFCut       ... 1.0000e-11
Integration weight cutoff        WCut        ... 1.0000e-14
Angular grids for H and He will be reduced by one unit
Partially contracted basis set               ... on
Rotationally invariant grid construction     ... off

Total number of grid points                  ...    10641
Total number of batches                      ...      173
Average number of points per batch           ...       61
Average number of grid points per atom       ...      819
UseSFitting                                  ... on

GRIDX 2
-------
General Integration Accuracy     IntAcc      ... 4.020
Radial Grid Type                 RadialGrid  ... OptM3 with GC (2021)
Angular Grid (max. ang.)         AngularGrid ... 2 (Lebedev-110)
Angular grid pruning method      GridPruning ... 4 (adaptive)
Weight generation scheme         WeightScheme... Becke
Basis function cutoff            BFCut       ... 1.0000e-11
Integration weight cutoff        WCut        ... 1.0000e-14
Angular grids for H and He will be reduced by one unit
Partially contracted basis set               ... on
Rotationally invariant grid construction     ... off

Total number of grid points                  ...    28044
Total number of batches                      ...      444
Average number of points per batch           ...       63
Average number of grid points per atom       ...     2157
UseSFitting                                  ... on

GRIDX 3
-------
General Integration Accuracy     IntAcc      ... 4.338
Radial Grid Type                 RadialGrid  ... OptM3 with GC (2021)
Angular Grid (max. ang.)         AngularGrid ... 3 (Lebedev-194)
Angular grid pruning method      GridPruning ... 4 (adaptive)
Weight generation scheme         WeightScheme... Becke
Basis function cutoff            BFCut       ... 1.0000e-11
Integration weight cutoff        WCut        ... 1.0000e-14
Angular grids for H and He will be reduced by one unit
Partially contracted basis set               ... on
Rotationally invariant grid construction     ... off

Total number of grid points                  ...    59889
Total number of batches                      ...      945
Average number of points per batch           ...       63
Average number of grid points per atom       ...     4607
UseSFitting                                  ... on

Time for X-Grid setup             =    0.898 sec

--------------
SCF ITERATIONS
--------------
ITER       Energy         Delta-E        Max-DP      RMS-DP      [F,P]     Damp
               ***  Starting incremental Fock matrix formation  ***
  0   -769.9518620604   0.000000000000 0.01466755  0.00023227  0.0753432 0.7000
  1   -769.9526800632  -0.000818002861 0.01487602  0.00021388  0.0531144 0.7000
                               ***Turning on DIIS***
  2   -769.9533055828  -0.000625519632 0.04079746  0.00055654  0.0372564 0.0000
  3   -769.9548712324  -0.001565649585 0.00442516  0.00005811  0.0015463 0.0000
  4   -769.9548931967  -0.000021964314 0.00218991  0.00004925  0.0005791 0.0000
               *** Restarting incremental Fock matrix formation ***
                                   *** Resetting DIIS ***

job aborted:
[ranks] message

[0] job terminated by the user

[1-7] terminated

---- error analysis -----

[0] on LAPTOP-K1S0PNN7
ctrl-c was hit. job aborted by the user.

---- error analysis -----
