
                                 *****************
                                 * O   R   C   A *
                                 *****************

                                            #,                                       
                                            ###                                      
                                            ####                                     
                                            #####                                    
                                            ######                                   
                                           ########,                                 
                                     ,,################,,,,,                         
                               ,,#################################,,                 
                          ,,##########################################,,             
                       ,#########################################, ''#####,          
                    ,#############################################,,   '####,        
                  ,##################################################,,,,####,       
                ,###########''''           ''''###############################       
              ,#####''   ,,,,##########,,,,          '''####'''          '####       
            ,##' ,,,,###########################,,,                        '##       
           ' ,,###''''                  '''############,,,                           
         ,,##''                                '''############,,,,        ,,,,,,###''
      ,#''                                            '''#######################'''  
     '                                                          ''''####''''         
             ,#######,   #######,   ,#######,      ##                                
            ,#'     '#,  ##    ##  ,#'     '#,    #''#        ######   ,####,        
            ##       ##  ##   ,#'  ##            #'  '#       #        #'  '#        
            ##       ##  #######   ##           ,######,      #####,   #    #        
            '#,     ,#'  ##    ##  '#,     ,#' ,#      #,         ##   #,  ,#        
             '#######'   ##     ##  '#######'  #'      '#     #####' # '####'        



                  #######################################################
                  #                        -***-                        #
                  #          Department of theory and spectroscopy      #
                  #    Directorship and core code : Frank Neese         #
                  #        Max Planck Institute fuer Kohlenforschung    #
                  #                Kaiser Wilhelm Platz 1               #
                  #                 D-45470 Muelheim/Ruhr               #
                  #                      Germany                        #
                  #                                                     #
                  #                  All rights reserved                #
                  #                        -***-                        #
                  #######################################################



                         Program Version 5.0.4 -  RELEASE  -

 With contributions from (in alphabetic order):
   Daniel Aravena         : Magnetic Suceptibility
   Michael Atanasov       : Ab Initio Ligand Field Theory (pilot matlab implementation)
   Alexander A. Auer      : GIAO ZORA, VPT2 properties, NMR spectrum
   Ute Becker             : Parallelization
   Giovanni Bistoni       : ED, misc. LED, open-shell LED, HFLD
   Martin Brehm           : Molecular dynamics
   Dmytro Bykov           : SCF Hessian
   Vijay G. Chilkuri      : MRCI spin determinant printing, contributions to CSF-ICE
   Dipayan Datta          : RHF DLPNO-CCSD density
   Achintya Kumar Dutta   : EOM-CC, STEOM-CC
   Dmitry Ganyushin       : Spin-Orbit,Spin-Spin,Magnetic field MRCI
   Miquel Garcia          : C-PCM and meta-GGA Hessian, CC/C-PCM, Gaussian charge scheme
   Yang Guo               : DLPNO-NEVPT2, F12-NEVPT2, CIM, IAO-localization
   Andreas Hansen         : Spin unrestricted coupled pair/coupled cluster methods
   Benjamin Helmich-Paris : MC-RPA, TRAH-SCF, COSX integrals
   Lee Huntington         : MR-EOM, pCC
   Robert Izsak           : Overlap fitted RIJCOSX, COSX-SCS-MP3, EOM
   Marcus Kettner         : VPT2
   Christian Kollmar      : KDIIS, OOCD, Brueckner-CCSD(T), CCSD density, CASPT2, CASPT2-K
   Simone Kossmann        : Meta GGA functionals, TD-DFT gradient, OOMP2, MP2 Hessian
   Martin Krupicka        : Initial AUTO-CI
   Lucas Lang             : DCDCAS
   Marvin Lechner         : AUTO-CI (C++ implementation), FIC-MRCC
   Dagmar Lenk            : GEPOL surface, SMD
   Dimitrios Liakos       : Extrapolation schemes; Compound Job, initial MDCI parallelization
   Dimitrios Manganas     : Further ROCIS development; embedding schemes
   Dimitrios Pantazis     : SARC Basis sets
   Anastasios Papadopoulos: AUTO-CI, single reference methods and gradients
   Taras Petrenko         : DFT Hessian,TD-DFT gradient, ASA, ECA, R-Raman, ABS, FL, XAS/XES, NRVS
   Peter Pinski           : DLPNO-MP2, DLPNO-MP2 Gradient
   Christoph Reimann      : Effective Core Potentials
   Marius Retegan         : Local ZFS, SOC
   Christoph Riplinger    : Optimizer, TS searches, QM/MM, DLPNO-CCSD(T), (RO)-DLPNO pert. Triples
   Tobias Risthaus        : Range-separated hybrids, TD-DFT gradient, RPA, STAB
   Michael Roemelt        : Original ROCIS implementation
   Masaaki Saitow         : Open-shell DLPNO-CCSD energy and density
   Barbara Sandhoefer     : DKH picture change effects
   Avijit Sen             : IP-ROCIS
   Kantharuban Sivalingam : CASSCF convergence, NEVPT2, FIC-MRCI
   Bernardo de Souza      : ESD, SOC TD-DFT
   Georgi Stoychev        : AutoAux, RI-MP2 NMR, DLPNO-MP2 response
   Willem Van den Heuvel  : Paramagnetic NMR
   Boris Wezisla          : Elementary symmetry handling
   Frank Wennmohs         : Technical directorship


 We gratefully acknowledge several colleagues who have allowed us to
 interface, adapt or use parts of their codes:
   Stefan Grimme, W. Hujo, H. Kruse, P. Pracht,  : VdW corrections, initial TS optimization,
                  C. Bannwarth, S. Ehlert          DFT functionals, gCP, sTDA/sTD-DF
   Ed Valeev, F. Pavosevic, A. Kumar             : LibInt (2-el integral package), F12 methods
   Garnet Chan, S. Sharma, J. Yang, R. Olivares  : DMRG
   Ulf Ekstrom                                   : XCFun DFT Library
   Mihaly Kallay                                 : mrcc  (arbitrary order and MRCC methods)
   Jiri Pittner, Ondrej Demel                    : Mk-CCSD
   Frank Weinhold                                : gennbo (NPA and NBO analysis)
   Christopher J. Cramer and Donald G. Truhlar   : smd solvation model
   Lars Goerigk                                  : TD-DFT with DH, B97 family of functionals
   V. Asgeirsson, H. Jonsson                     : NEB implementation
   FAccTs GmbH                                   : IRC, NEB, NEB-TS, DLPNO-Multilevel, CI-OPT
                                                   MM, QMMM, 2- and 3-layer-ONIOM, Crystal-QMMM,
                                                   LR-CPCM, SF, NACMEs, symmetry and pop. for TD-DFT,
                                                   nearIR, NL-DFT gradient (VV10), updates on ESD,
                                                   ML-optimized integration grids
   S Lehtola, MJT Oliveira, MAL Marques          : LibXC Library
   Liviu Ungur et al                             : ANISO software


 Your calculation uses the libint2 library for the computation of 2-el integrals
 For citations please refer to: http://libint.valeyev.net

 Your ORCA version has been built with support for libXC version: 5.1.0
 For citations please refer to: https://tddft.org/programs/libxc/

 This ORCA versions uses:
   CBLAS   interface :  Fast vector & matrix operations
   LAPACKE interface :  Fast linear algebra routines
   Shared memory     :  Shared parallel matrices


================================================================================

----- Orbital basis set information -----
Your calculation utilizes the basis: def2-SVP
   F. Weigend and R. Ahlrichs, Phys. Chem. Chem. Phys. 7, 3297 (2005).

The basis set includes element-specific modifications.

----- AuxJ basis set information -----
Your calculation utilizes the auxiliary basis: def2/J
   F. Weigend, Phys. Chem. Chem. Phys. 8, 1057 (2006).

The basis set includes element-specific modifications.

================================================================================
                                        WARNINGS
                       Please study these warnings very carefully!
================================================================================


INFO   : the flag for use of the SHARK integral package has been found!


WARNING: TRAH-SCF with ROHF wave function is not implemented yet
  ===> : Turning TRAH off

================================================================================
                                       INPUT FILE
================================================================================
NAME = TaCO6-_atom73.inp
|  1> # input to generate an atomic fitting density for Ta
|  2> # this file is used internally by ORCA
|  3> #
|  4> # atomic ground state (S=4): 1s2 2s2 2p6 3s2 3p6 4s2 3d10 4p6 5s2 4d10 5p6 6s2 4f14 5d3 
|  5> #
|  6> ! RHF AllowRHF def2-SVP def2/J  NoMulliken NoLoewdin NoMayer NoPrintMOs 
|  7> 
|  8> %output print[p_atomdensfit] 2 end
|  9> 
| 10> %scf
| 11>   guess hcore
| 12>   maxiter 1000
| 13>   maxdisk 500000
| 14>   SCFMode Conventional
| 15>   lshift 0.200000
| 16>   hftyp rohf
| 17>   rohf_case sahf
| 18>   rohf_numop   2
| 19>   rohf_norb[1] 5
| 20>   rohf_nel[1]  3
| 21> end
| 22> 
| 23> %basis
| 24>   NewECP 73
| 25>     N_core 60
| 26>     lmax f
| 27>     s 3
| 28>       1      14.5464077000   1345.8806470000  2
| 29>       2       7.2732038000     36.7668062000  2
| 30>       3       2.0178811000    -12.0179609000  2
| 31>     p 3
| 32>       1       9.9355653000    378.4253015000  2
| 33>       2       4.9677824000     22.2930909000  2
| 34>       3       2.0178811000    -12.0179609000  2
| 35>     d 3
| 36>       1       6.3473769000    104.8839557000  2
| 37>       2       3.1736885000      8.7558481000  2
| 38>       3       2.0178811000    -12.0179609000  2
| 39>     f 1
| 40>       1       2.0178811000     12.0179609000  2
| 41>   end
| 42>   NewGTO 73
| 43>     s 2 
| 44>      1      14.4000000000      1.4764043846
| 45>      2      12.0000000000     -2.4536684721
| 46>     s 1 
| 47>      1       5.0701477302      1.0000000000
| 48>     s 1 
| 49>      1       0.8603335649      1.0000000000
| 50>     s 1 
| 51>      1       0.3715893889      1.0000000000
| 52>     s 1 
| 53>      1       0.1074533625      1.0000000000
| 54>     s 1 
| 55>      1       0.0391427766      1.0000000000
| 56>     p 4 
| 57>      1       7.4188720000      0.2965388357
| 58>      2       5.6984100000     -0.5162436146
| 59>      3       1.1777211960      0.5595074018
| 60>      4       0.5447853355      0.5748187935
| 61>     p 1 
| 62>      1       0.2230927012      1.0000000000
| 63>     p 1 
| 64>      1       0.0431000000      1.0000000000
| 65>     d 4 
| 66>      1       3.9738796278     -0.0588169688
| 67>      2       1.4528884813      0.2067345355
| 68>      3       0.6104290854      0.4785521518
| 69>      4       0.2421627651      0.4845470672
| 70>     d 1 
| 71>      1       0.0879093183      1.0000000000
| 72>     f 1 
| 73>      1       0.3738600000      1.0000000000
| 74>     p 1 
| 75>      1       0.0981000000      1.0000000000
| 76>   end
| 77>   NewAuxGTO 73
| 78>     S 1
| 79>      1 1310.72 1.0
| 80>     S 1
| 81>      1  655.36 1.0
| 82>     S 1
| 83>      1  327.68 1.0
| 84>     S 1
| 85>      1  163.84 1.0
| 86>     S 1
| 87>      1   81.82 1.0
| 88>     S 1
| 89>      1   40.96 1.0
| 90>     S 1
| 91>      1   20.48 1.0
| 92>     S 1
| 93>      1   10.24 1.0
| 94>     S 1
| 95>      1    5.12 1.0
| 96>     S 1
| 97>      1    2.56 1.0
| 98>     S 1
| 99>      1    1.28 1.0
|100>     S 1
|101>      1    0.64 1.0
|102>     S 1
|103>      1    0.32 1.0
|104>     S 1
|105>      1    0.16 1.0
|106>     S 1
|107>      1    0.08 1.0
|108>     S 1
|109>      1    0.04 1.0
|110>     S 1
|111>      1    0.02 1.0
|112>     S 1
|113>      1    0.01 1.0
|114>   end
|115> end
|116> 
|117> * xyz 0 4
|118> 73  0.0 0.0 0.0
|119> *
|120> 
|121> 
|122>                          ****END OF INPUT****
================================================================================

                       ****************************
                       * Single Point Calculation *
                       ****************************

---------------------------------
CARTESIAN COORDINATES (ANGSTROEM)
---------------------------------
  Ta     0.000000    0.000000    0.000000

----------------------------
CARTESIAN COORDINATES (A.U.)
----------------------------
  NO LB      ZA    FRAG     MASS         X           Y           Z
   0 Ta   13.0000*   0   180.948    0.000000    0.000000    0.000000
* core charge reduced due to ECP

--------------------------------
INTERNAL COORDINATES (ANGSTROEM)
--------------------------------
 Ta     0   0   0     0.000000000000     0.00000000     0.00000000

---------------------------
INTERNAL COORDINATES (A.U.)
---------------------------
 Ta     0   0   0     0.000000000000     0.00000000     0.00000000

---------------------
BASIS SET INFORMATION
---------------------
There are 1 groups of distinct atoms

 Group   1 Type Ta  : 7s7p5d1f contracted to 6s4p2d1f pattern {211111/4111/41/1}

Atom   0Ta   basis set group =>   1
---------------------------------
AUXILIARY/J BASIS SET INFORMATION
---------------------------------
There are 1 groups of distinct atoms

 Group   1 Type Ta  : 18s contracted to 18s pattern {111111111111111111}

Atom   0Ta   basis set group =>   1
-------------------------
ECP PARAMETER INFORMATION
-------------------------

 Group 1, Type Ta ECP (replacing 60 core electrons, lmax=3)

Atom   0Ta   ECP group =>   1

------------------------------------------------------------------------------
                           ORCA GTO INTEGRAL CALCULATION
------------------------------------------------------------------------------
------------------------------------------------------------------------------
                   ___                                                        
                  /   \      - P O W E R E D   B Y -                         
                 /     \                                                     
                 |  |  |   _    _      __       _____    __    __             
                 |  |  |  | |  | |    /  \     |  _  \  |  |  /  |          
                  \  \/   | |  | |   /    \    | | | |  |  | /  /          
                 / \  \   | |__| |  /  /\  \   | |_| |  |  |/  /          
                |  |  |   |  __  | /  /__\  \  |    /   |      \           
                |  |  |   | |  | | |   __   |  |    \   |  |\   \          
                \     /   | |  | | |  |  |  |  | |\  \  |  | \   \       
                 \___/    |_|  |_| |__|  |__|  |_| \__\ |__|  \__/        
                                                                              
                      - O R C A' S   B I G   F R I E N D -                    
                                      &                                       
                       - I N T E G R A L  F E E D E R -                       
                                                                              
 v1 FN, 2020, v2 2021                                                         
------------------------------------------------------------------------------


Reading SHARK input file TaCO6-_atom73.SHARKINP.tmp ... ok
----------------------
SHARK INTEGRAL PACKAGE
----------------------

Number of atoms                             ...      1
Number of basis functions                   ...     35
Number of shells                            ...     13
Maximum angular momentum                    ...      3
Integral batch strategy                     ... SHARK/LIBINT Hybrid
RI-J (if used) integral strategy            ... SPLIT-RIJ (Revised 2003 algorithm where possible)
Printlevel                                  ...      1
Contraction scheme used                     ... SEGMENTED contraction
Coulomb Range Separation                    ... NOT USED
Exchange Range Separation                   ... NOT USED
Finite Nucleus Model                        ... NOT USED
Auxiliary Coulomb fitting basis             ... AVAILABLE
   # of basis functions in Aux-J            ...     18
   # of shells in Aux-J                     ...     18
   Maximum angular momentum in Aux-J        ...      0
Auxiliary J/K fitting basis                 ... NOT available
Auxiliary Correlation fitting basis         ... NOT available
Auxiliary 'external' fitting basis          ... NOT available
Integral threshold                          ...     1.000000e-10
Primitive cut-off                           ...     1.000000e-11
Primitive pair pre-selection threshold      ...     1.000000e-11

Calculating pre-screening integrals         ... done (  0.0 sec) Dimension = 13
Organizing shell pair data                  ... done (  0.0 sec)
Shell pair information
Total number of shell pairs                 ...        91
Shell pairs after pre-screening             ...        91
Total number of primitive shell pairs       ...       223
Primitive shell pairs kept                  ...       223
          la=0 lb=0:     21 shell pairs
          la=1 lb=0:     24 shell pairs
          la=1 lb=1:     10 shell pairs
          la=2 lb=0:     12 shell pairs
          la=2 lb=1:      8 shell pairs
          la=2 lb=2:      3 shell pairs
          la=3 lb=0:      6 shell pairs
          la=3 lb=1:      4 shell pairs
          la=3 lb=2:      2 shell pairs
          la=3 lb=3:      1 shell pairs

Calculating one electron integrals          ... done (  0.0 sec)
Calculating ECP integrals                   ... done (  0.0 sec)
Calculating RI/J V-Matrix + Cholesky decomp.... done (  0.0 sec)
Calculating Nuclear repulsion               ... done (  0.0 sec) ENN=      0.000000000000 Eh
Calculating 4-index integrals               ... 
    -> SHARK/Ints2Disk: Thresh =     1.000000e-10 TCut=    1.000000e-11 
    -> calling libint FockFlag=2 Lmax_loc=3
    -> L=0 0 1 3:     0.000 sec done=        84 (=100.0%) skipped=         0 
    -> L=0 1 0 3:     0.000 sec done=       144 (=100.0%) skipped=         0 
    -> L=0 1 1 3:     0.001 sec done=        96 (=100.0%) skipped=         0 
    -> L=0 1 2 2:     0.000 sec done=        72 (=100.0%) skipped=         0 
    -> L=0 1 3 3:     0.000 sec done=        24 (=100.0%) skipped=         0 
    -> L=0 2 0 3:     0.000 sec done=        72 (=100.0%) skipped=         0 
    -> L=0 2 1 3:     0.001 sec done=        48 (=100.0%) skipped=         0 
    -> L=0 2 2 2:     0.000 sec done=        36 (=100.0%) skipped=         0 
    -> L=0 3 0 3:     0.000 sec done=        21 (=100.0%) skipped=         0 
    -> L=0 3 1 1:     0.001 sec done=        60 (=100.0%) skipped=         0 
    -> L=0 3 1 2:     0.000 sec done=        48 (=100.0%) skipped=         0 
    -> L=0 3 1 3:     0.000 sec done=        24 (=100.0%) skipped=         0 
    -> L=0 3 2 2:     0.001 sec done=        18 (=100.0%) skipped=         0 
    -> L=1 1 1 2:     0.000 sec done=        80 (=100.0%) skipped=         0 
    -> L=1 1 1 3:     0.001 sec done=        40 (=100.0%) skipped=         0 
    -> L=1 1 2 2:     0.001 sec done=        30 (=100.0%) skipped=         0 
    -> L=1 2 1 2:     0.001 sec done=        36 (=100.0%) skipped=         0 
    -> L=1 2 1 3:     0.000 sec done=        32 (=100.0%) skipped=         0 
    -> L=1 2 2 2:     0.002 sec done=        24 (=100.0%) skipped=         0 
    -> L=1 3 1 3:     0.000 sec done=        10 (=100.0%) skipped=         0 
    -> L=1 3 2 2:     0.001 sec done=        12 (=100.0%) skipped=         0 
    -> L=2 2 2 2:     0.002 sec done=         6 (=100.0%) skipped=         0 
    ->Total LIBINT loop time =    0.012 sec
    -> L=0 0 0 0:     0.000 sec done=       231 (=100.0%) skipped=         0 
    -> L=1 0 0 0:     0.001 sec done=       504 (=100.0%) skipped=         0 
    -> L=1 0 1 0:     0.000 sec done=       300 (=100.0%) skipped=         0 
    -> L=1 1 0 0:     0.000 sec done=       210 (=100.0%) skipped=         0 
    -> L=1 1 1 0:     0.000 sec done=       240 (=100.0%) skipped=         0 
    -> L=1 1 1 1:     0.000 sec done=        55 (=100.0%) skipped=         0 
    -> L=2 0 0 0:     0.001 sec done=       252 (=100.0%) skipped=         0 
    -> L=2 0 1 0:     0.000 sec done=       288 (=100.0%) skipped=         0 
    -> L=2 0 1 1:     0.000 sec done=       120 (=100.0%) skipped=         0 
    -> L=2 0 2 0:     0.001 sec done=        78 (=100.0%) skipped=         0 
    -> L=2 1 0 0:     0.000 sec done=       168 (=100.0%) skipped=         0 
    -> L=2 1 1 0:     0.000 sec done=       192 (=100.0%) skipped=         0 
    -> L=2 1 2 0:     0.000 sec done=        96 (=100.0%) skipped=         0 
    -> L=2 2 0 0:     0.001 sec done=        63 (=100.0%) skipped=         0 
    -> L=3 0 0 0:     0.000 sec done=       126 (=100.0%) skipped=         0 
    -> L=3 2 0 0:     0.000 sec done=        42 (=100.0%) skipped=         0 
    -> L=3 2 1 0:     0.001 sec done=        48 (=100.0%) skipped=         0 
    -> L=3 2 1 1:     0.000 sec done=        20 (=100.0%) skipped=         0 
    -> L=3 2 2 0:     0.001 sec done=        24 (=100.0%) skipped=         0 
    -> L=3 2 2 1:     0.001 sec done=        16 (=100.0%) skipped=         0 
    -> L=3 2 2 2:     0.002 sec done=         6 (=100.0%) skipped=         0 
    -> L=3 2 3 0:     0.000 sec done=        12 (=100.0%) skipped=         0 
    -> L=3 2 3 1:     0.001 sec done=         8 (=100.0%) skipped=         0 
    -> L=3 2 3 2:     0.001 sec done=         3 (=100.0%) skipped=         0 
    -> L=3 3 0 0:     0.000 sec done=        21 (=100.0%) skipped=         0 
    -> L=3 3 1 1:     0.000 sec done=        10 (=100.0%) skipped=         0 
    -> L=3 3 2 0:     0.000 sec done=        12 (=100.0%) skipped=         0 
    -> L=3 3 2 1:     0.001 sec done=         8 (=100.0%) skipped=         0 
    -> L=3 3 2 2:     0.000 sec done=         3 (=100.0%) skipped=         0 
    -> L=3 3 3 0:     0.000 sec done=         6 (=100.0%) skipped=         0 
    -> L=3 3 3 1:     0.001 sec done=         4 (=100.0%) skipped=         0 
    -> L=3 3 3 2:     0.000 sec done=         2 (=100.0%) skipped=         0 
    -> L=3 3 3 3:     0.000 sec done=         1 (=100.0%) skipped=         0 
    ->Total SHARK integral loop time =    0.014 sec
    -> Total Integral generation matrix time =    0.032 sec
    -> Number of small integrals   =         0
    -> Number of medium integrals  =        29
    -> Number of large integrals   =     21560
    -> Number of MB stored         =         0 MB


SHARK setup successfully completed in   0.1 seconds

Maximum memory used throughout the entire GTOINT-calculation: 35.5 MB
-------------------------------------------------------------------------------
                                 ORCA SCF
-------------------------------------------------------------------------------

------------
SCF SETTINGS
------------
Hamiltonian:
 Ab initio Hamiltonian  Method          .... Hartree-Fock(GTOs)


General Settings:
 Integral files         IntName         .... TaCO6-_atom73
 Hartree-Fock type      HFTyp           .... ROHF
 Total Charge           Charge          ....    0
 Multiplicity           Mult            ....    4
 Number of Electrons    NEL             ....   13
 Basis Dimension        Dim             ....   35
 Nuclear Repulsion      ENuc            ....      0.0000000000 Eh

Convergence Acceleration:
 DIIS                   CNVDIIS         .... on
   Start iteration      DIISMaxIt       ....    12
   Startup error        DIISStart       ....  0.200000
   # of expansion vecs  DIISMaxEq       ....     5
   Bias factor          DIISBfac        ....   1.050
   Max. coefficient     DIISMaxC        ....  10.000
 Trust-Rad. Augm. Hess. CNVTRAH         .... off
 SOSCF                  CNVSOSCF        .... off
 Level Shifting         CNVShift        .... on
   Level shift para.    LevelShift      ....    0.2000
   Turn off err/grad.   ShiftErr        ....    0.0010
 Zerner damping         CNVZerner       .... off
 Static damping         CNVDamp         .... on
   Fraction old density DampFac         ....    0.7000
   Max. Damping (<1)    DampMax         ....    0.9800
   Min. Damping (>=0)   DampMin         ....    0.0000
   Turn off err/grad.   DampErr         ....    0.1000
 Fernandez-Rico         CNVRico         .... off

SCF Procedure:
 Maximum # iterations   MaxIter         ....  1000
 SCF integral mode      SCFMode         .... Conventional
 Integral Threshold     Thresh          ....  1.000e-10 Eh
 Primitive CutOff       TCut            ....  1.000e-11 Eh
 Integral Buffer length BufferLength    .... 1048576
 Integral index format  IndFormat       ....     0
 Integral value format  ValFormat       ....     0
 Integral Storage       Thresh          ....  1.000e-10 Eh

Convergence Tolerance:
 Convergence Check Mode ConvCheckMode   .... Total+1el-Energy
 Convergence forced     ConvForced      .... 0
 Energy Change          TolE            ....  1.000e-06 Eh
 1-El. energy change                    ....  1.000e-03 Eh
 DIIS Error             TolErr          ....  1.000e-06


Diagonalization of the overlap matrix:
Smallest eigenvalue                        ... 1.759e-02
Time for diagonalization                   ...    0.001 sec
Threshold for overlap eigenvalues          ... 1.000e-08
Number of eigenvalues below threshold      ... 0
Time for construction of square roots      ...    0.002 sec
Total time needed                          ...    0.003 sec

--------------------
INITIAL GUESS: HCORE
--------------------
AVERAGE-CONFIGURATION (SAHF) CASE FOUND

-------------------
FINAL ROHF SETTINGS
-------------------
Number of operators             ... 2
  operator   0:   5 orbitals  10 electrons n(mue)= 2.000
  operator   1:   5 orbitals   3 electrons n(mue)= 0.600
Vector coupling coefficients a and b (Zerner convention):
   1.000    1.000           1.000    1.000 
   1.000    0.833           1.000    1.667 

                      -----------------
                      INTIAL GUESS DONE 
                      -----------------

 InCore treatment chosen:
   Memory dedicated               ...    1024 MB
   Memory needed                  ...      0 MB
   Number of tiny    integrals    ...       0
   Number of small   integrals    ...      29
   Number of regular integrals    ...   21560

--------------
SCF ITERATIONS
--------------
ITER       Energy         Delta-E        Max-DP      RMS-DP      [F,P]     Damp
  0    -54.0223420785   0.000000000000 1.90778461  0.07944235  0.5508170 0.7000
                            ****Activating DIIS****
  1    -55.3291470954  -1.306805016909 1.33179658  0.05306386  0.1595883 0.7000
  2    -55.4128173514  -0.083670256034 3.09097402  0.11842643  0.0510609 0.0000
  3    -55.6373791533  -0.224561801930 0.03589196  0.00190940  0.1349034 0.7000
  4    -55.5887979008   0.048581252531 0.02938087  0.00151886  0.1741696 0.7000
  5    -55.5772842414   0.011513659358 0.03076729  0.00188142  0.1767723 0.7000
  6    -55.5410516297   0.036232611724 0.01702574  0.00112787  0.1984708 0.7000
  7    -55.5360689953   0.004982634429 0.32165290  0.01360026  0.1958548 0.7000
  8    -55.7533068541  -0.217237858832 1.76871796  0.06302115  0.0607079 0.0000
  9    -56.0100532305  -0.256746376425 0.11370417  0.00375854  0.0470460 0.0000
 10    -56.0283264766  -0.018273246024 0.24135847  0.00769090  0.0251058 0.0000
 11    -56.0471344742  -0.018807997663 0.21732059  0.00775139  0.0205828 0.0000
 12    -56.0608886157  -0.013754141453 0.25724541  0.01080893  0.0160085 0.0000
 13    -56.0735419996  -0.012653383954 0.37170545  0.01284124  0.0124313 0.0000
 14    -56.0777414581  -0.004199458475 0.06944589  0.00244907  0.0089522 0.0000
 15    -56.0775247138   0.000216744352 0.01011235  0.00049512  0.0078132 0.0000
 16    -56.0777023657  -0.000177651989 0.02572700  0.00091353  0.0071973 0.0000
 17    -56.0780150542  -0.000312688404 0.05191432  0.00175810  0.0061688 0.0000
 18    -56.0785011537  -0.000486099504 0.05087863  0.00166888  0.0042401 0.0000
 19    -56.0789104583  -0.000409304623 0.02424815  0.00105101  0.0028032 0.0000
 20    -56.0792443585  -0.000333900209 0.01350387  0.00078079  0.0029157 0.0000
 21    -56.0795558871  -0.000311528603 0.00954056  0.00048309  0.0031411 0.0000
 22    -56.0797758021  -0.000219914984 0.00403912  0.00019674  0.0033213 0.0000
 23    -56.0798678403  -0.000092038258 0.00139648  0.00005352  0.0034060 0.0000
 24    -56.0798585813   0.000009259022 0.00114317  0.00004483  0.0034023 0.0000
 25    -56.0798451901   0.000013391160 0.00197199  0.00010546  0.0033930 0.0000
 26    -56.0798915259  -0.000046335721 0.00425547  0.00020627  0.0034299 0.0000
 27    -56.0799907612  -0.000099235376 0.00062539  0.00003240  0.0035172 0.0000
 28    -56.0800028980  -0.000012136782 0.00075920  0.00003879  0.0035299 0.0000
 29    -56.0800204285  -0.000017530504 0.00114290  0.00005524  0.0035465 0.0000
 30    -56.0800474123  -0.000026983727 0.00241088  0.00011637  0.0035705 0.0000
 31    -56.0801049960  -0.000057583730 0.00225309  0.00010838  0.0036202 0.0000
 32    -56.0801590298  -0.000054033769 0.00035419  0.00001899  0.0036680 0.0000
 33    -56.0801502542   0.000008775544 0.00267577  0.00012844  0.0036611 0.0000
 34    -56.0802151267  -0.000064872524 0.00049052  0.00002383  0.0037181 0.0000
 35    -56.0802271890  -0.000012062261 0.00305820  0.00014717  0.0037284 0.0000
 36    -56.0803027120  -0.000075523037 0.00053814  0.00002617  0.0037940 0.0000
 37    -56.0802892806   0.000013431413 0.00242612  0.00011683  0.0037826 0.0000
 38    -56.0803498084  -0.000060527778 0.00155793  0.00007529  0.0038351 0.0000
 39    -56.0803891780  -0.000039369614 0.00083108  0.00004024  0.0038689 0.0000
 40    -56.0804103314  -0.000021153421 0.00270962  0.00013128  0.0038869 0.0000
 41    -56.0804799229  -0.000069591494 0.00148861  0.00007222  0.0039463 0.0000
 42    -56.0804415419   0.000038381010 0.00419971  0.00020398  0.0039137 0.0000
 43    -56.0805506434  -0.000109101497 0.00092145  0.00004489  0.0040061 0.0000
 44    -56.0805265097   0.000024133712 0.00300012  0.00014627  0.0039857 0.0000
 45    -56.0806056897  -0.000079179975 0.00045711  0.00002236  0.0040522 0.0000
 46    -56.0806178823  -0.000012192597 0.00138427  0.00006775  0.0040623 0.0000
 47    -56.0806549993  -0.000037117071 0.00304012  0.00014933  0.0040932 0.0000
 48    -56.0807376470  -0.000082647663 0.00273216  0.00013428  0.0041613 0.0000
 49    -56.0806633596   0.000074287386 0.00447002  0.00021993  0.0041000 0.0000
 50    -56.0807856006  -0.000122240949 0.00020728  0.00001028  0.0042005 0.0000
 51    -56.0807798646   0.000005736004 0.00316286  0.00015655  0.0041958 0.0000
 52    -56.0808683050  -0.000088440386 0.00123573  0.00006132  0.0042676 0.0000
 53    -56.0808335835   0.000034721478 0.00166991  0.00008282  0.0042394 0.0000
 54    -56.0808806089  -0.000047025445 0.00463666  0.00023125  0.0042774 0.0000
 55    -56.0810137904  -0.000133181505 0.00597037  0.00029751  0.0043836 0.0000
 56    -56.0808431404   0.000170650001 0.00257397  0.00012785  0.0042469 0.0000
 57    -56.0809160074  -0.000072866930 0.00112451  0.00005603  0.0043055 0.0000
 58    -56.0809482175  -0.000032210101 0.00289253  0.00014466  0.0043313 0.0000
 59    -56.0810320434  -0.000083825991 0.00116801  0.00005865  0.0043979 0.0000
 60    -56.0810663145  -0.000034271027 0.00195504  0.00009810  0.0044249 0.0000
 61    -56.0810091110   0.000057203441 0.00485138  0.00024400  0.0043797 0.0000
 62    -56.0811524374  -0.000143326317 0.00119295  0.00006025  0.0044921 0.0000
 63    -56.0811168298   0.000035607587 0.00406273  0.00020563  0.0044642 0.0000
 64    -56.0812393187  -0.000122488982 0.00290597  0.00014726  0.0045591 0.0000
 65    -56.0811514379   0.000087880868 0.00206557  0.00010456  0.0044911 0.0000
 66    -56.0812137706  -0.000062332756 0.00518953  0.00026461  0.0045394 0.0000
 67    -56.0813740156  -0.000160244949 0.00708905  0.00036085  0.0046616 0.0000
 68    -56.0811566112   0.000217404430 0.00165064  0.00008355  0.0044946 0.0000
 69    -56.0812064688  -0.000049857611 0.00091411  0.00004653  0.0045331 0.0000
 70    -56.0811789441   0.000027524676 0.00093807  0.00004762  0.0045116 0.0000
 71    -56.0812074091  -0.000028465043 0.00029333  0.00001594  0.0045334 0.0000
 72    -56.0811988528   0.000008556295 0.00734330  0.00037506  0.0045264 0.0000
 73    -56.0814260759  -0.000227223095 0.01093810  0.00055642  0.0047001 0.0000
 74    -56.0810914333   0.000334642640 0.00555086  0.00027862  0.0044425 0.0000
 75    -56.0809305484   0.000160884878 0.01518070  0.00074884  0.0043139 0.0000
 76    -56.0805185653   0.000411983154 0.04688181  0.00222049  0.0039715 0.0000
 77    -56.0794700115   0.001048553792 0.05513180  0.00252433  0.0030106 0.0000
 78    -56.0785731368   0.000896874662 0.00669174  0.00031044  0.0020974 0.0000
 79    -56.0786743337  -0.000101196845 0.02809815  0.00128160  0.0021858 0.0000
 80    -56.0783220656   0.000352268055 0.02216770  0.00101439  0.0017794 0.0000
 81    -56.0781042312   0.000217834414 0.03631368  0.00168001  0.0016850 0.0000
 82    -56.0778270477   0.000277183523 0.03706606  0.00176360  0.0015579 0.0000
 83    -56.0776497676   0.000177280068 0.03397207  0.00168565  0.0013340 0.0000
 84    -56.0775784699   0.000071297663 0.02529082  0.00132202  0.0010619 0.0000
 85    -56.0775792193  -0.000000749392 0.00252360  0.00017521  0.0008520 0.0000
 86    -56.0775990612  -0.000019841834 0.01424217  0.00078836  0.0007878 0.0000
 87    -56.0776476653  -0.000048604097 0.00552279  0.00036677  0.0006053 0.0000
 88    -56.0776777233  -0.000030058055 0.00551675  0.00029984  0.0005012 0.0000
 89    -56.0776967615  -0.000019038233 0.00394631  0.00019305  0.0004473 0.0000
 90    -56.0777046054  -0.000007843883 0.00168605  0.00008234  0.0004838 0.0000
 91    -56.0777067799  -0.000002174500 0.00107614  0.00005786  0.0004935 0.0000
 92    -56.0777093844  -0.000002604457 0.00108691  0.00006766  0.0005010 0.0000
 93    -56.0777133321  -0.000003947749 0.00136213  0.00008023  0.0005117 0.0000
 94    -56.0777185253  -0.000005193169 0.00083040  0.00004685  0.0005274 0.0000
 95    -56.0777217460  -0.000003220745 0.00030994  0.00001383  0.0005377 0.0000
                 **** Energy Check signals convergence ****

               *****************************************************
               *                     SUCCESS                       *
               *           SCF CONVERGED AFTER  96 CYCLES          *
               *****************************************************


----------------
TOTAL SCF ENERGY
----------------

Total Energy       :          -56.07772164 Eh           -1525.95238 eV

Components:
Nuclear Repulsion  :            0.00000000 Eh               0.00000 eV
Electronic Energy  :          -56.07772164 Eh           -1525.95238 eV
One Electron Energy:          -93.64518963 Eh           -2548.21516 eV
Two Electron Energy:           37.56746799 Eh            1022.26277 eV

Virial components:
Potential Energy   :          -75.48396726 Eh           -2054.02317 eV
Kinetic Energy     :           19.40624562 Eh             528.07079 eV
Virial Ratio       :            3.88967391


---------------
SCF CONVERGENCE
---------------

  Last Energy change         ...    1.0699e-07  Tolerance :   1.0000e-06
  Last MAX-Density change    ...    2.9788e-05  Tolerance :   1.0000e-05
  Last RMS-Density change    ...    1.7143e-06  Tolerance :   1.0000e-06
  Last DIIS Error            ...    5.3731e-04  Tolerance :   1.0000e-06

             **** THE GBW FILE WAS UPDATED (TaCO6-_atom73.gbw) ****
             **** DENSITY TaCO6-_atom73.scfp WAS UPDATED ****
             **** ENERGY FILE WAS UPDATED (TaCO6-_atom73.en.tmp) ****
             **** THE GBW FILE WAS UPDATED (TaCO6-_atom73.gbw) ****
             **** DENSITY TaCO6-_atom73.scfp WAS UPDATED ****
----------------
ORBITAL ENERGIES
----------------

  NO   OCC          E(Eh)            E(eV) 
   0   2.0000      -3.202402       -87.1418 
   1   2.0000      -1.784822       -48.5675 
   2   2.0000      -1.778360       -48.3916 
   3   2.0000      -1.778280       -48.3894 
   4   2.0000      -0.319601        -8.6968 
   5   0.6000      -0.341597        -9.2953 
   6   0.6000      -0.314626        -8.5614 
   7   0.6000      -0.314624        -8.5614 
   8   0.6000      -0.167427        -4.5559 
   9   0.6000      -0.167333        -4.5534 
  10   0.0000      -0.069374        -1.8878 
  11   0.0000      -0.108871        -2.9625 
  12   0.0000      -0.108723        -2.9585 
  13   0.0000       0.061018         1.6604 
  14   0.0000       0.129072         3.5122 
  15   0.0000       0.129153         3.5144 
  16   0.0000       0.126517         3.4427 
  17   0.0000       0.176603         4.8056 
  18   0.0000       0.184406         5.0179 
  19   0.0000       0.184406         5.0180 
  20   0.0000       0.205050         5.5797 
  21   0.0000       0.205138         5.5821 
  22   0.0000       0.855494        23.2792 
  23   0.0000       0.864946        23.5364 
  24   0.0000       0.865065        23.5396 
  25   0.0000       0.860513        23.4158 
  26   0.0000       0.860513        23.4158 
  27   0.0000       0.879943        23.9445 
  28   0.0000       0.879943        23.9445 
  29   0.0000       1.237423        33.6720 
  30   0.0000       1.233345        33.5610 
  31   0.0000       1.233528        33.5660 
  32   0.0000       1.297279        35.3008 
  33   0.0000      70.020547      1905.3560 
  34   0.0000     642.482145     17482.8280 

Warning: MO coefficients are modified such that the real solid harmonic m components
have the correct order within each shell (0, +1, -1, +2, -2, ...) and all s orbitals
come before all p orbitals etc. (with increasing orbital energy within each block of given angular momentum).

CleanUpVectors: The p-vectors have cracked symmetry
CleanUpVectors: The p-vectors have cracked symmetry
CleanUpVectors: The p-vectors have cracked symmetry
CleanUpVectors: The d-vectors have cracked symmetry at i=4
CleanUpVectors: The d-vectors have cracked symmetry at i=6
CleanUpVectors: The d-vectors have cracked symmetry at i=7
CleanUpVectors: The p-vectors have cracked symmetry
CleanUpVectors: The p-vectors have cracked symmetry
CleanUpVectors: The p-vectors have cracked symmetry
CleanUpVectors: The d-vectors have cracked symmetry at i=11
CleanUpVectors: The d-vectors have cracked symmetry at i=12
CleanUpVectors: The p-vectors have cracked symmetry
CleanUpVectors: The p-vectors have cracked symmetry
CleanUpVectors: The p-vectors have cracked symmetry
CleanUpVectors: The d-vectors have cracked symmetry at i=17
CleanUpVectors: The d-vectors have cracked symmetry at i=18
CleanUpVectors: The d-vectors have cracked symmetry at i=19
CleanUpVectors: The d-vectors have cracked symmetry at i=20
CleanUpVectors: The d-vectors have cracked symmetry at i=21
CleanUpVectors: The f-vectors have cracked symmetry
CleanUpVectors: The f-vectors have cracked symmetry
CleanUpVectors: The f-vectors have cracked symmetry
CleanUpVectors: The f-vectors have cracked symmetry
CleanUpVectors: The f-vectors have cracked symmetry
CleanUpVectors: The f-vectors have cracked symmetry
CleanUpVectors: The f-vectors have cracked symmetry
CleanUpVectors: The p-vectors have cracked symmetry
CleanUpVectors: The p-vectors have cracked symmetry
CleanUpVectors: The p-vectors have cracked symmetry
--------------------------
ATOM BASIS FOR ELEMENT Ta
--------------------------
 NewGTO Ta
 S 7
    1         14.400000000000        -0.591306051495
    2         12.000000000000         0.982704353258
    3          5.070147730200        -0.885226641778
    4          0.860333564900         0.975878605467
    5          0.371589388900         0.296297974021
    6          0.107453362500         0.003839605464
    7          0.039142776600         0.000436909384
 P 20
    1          7.418872000000        -0.263998376770
    2          5.698410000000         0.459594022315
    3          1.177721196000        -0.498110291413
    4          0.544785335500        -0.511741499431
    5          7.418872000000        -0.014054625966
    6          5.698410000000         0.024467658319
    7          1.177721196000        -0.026518170002
    8          0.544785335500        -0.027243862078
    9          7.418872000000         0.059636855940
   10          5.698410000000        -0.103821632675
   11          1.177721196000         0.112522402807
   12          0.544785335500         0.115601673213
   13          0.223092701200        -0.121872622283
   14          0.223092701200        -0.006488199445
   15          0.223092701200         0.027530851163
   16          0.043100000000        -0.003829146484
   17          0.043100000000        -0.000203854366
   18          0.043100000000         0.000864998717
   19          0.373860000000        -0.021630474748
   20          0.373860000000        -0.003030066804
 D 20
    1         14.400000000000         0.001101217884
    2         12.000000000000        -0.002196165467
    3          5.070147730200         0.004844023868
    4          0.860333564900        -0.045606447754
    5          0.371589388900        -0.050979214351
    6          0.107453362500         0.543499826478
    7          0.039142776600         0.938775076625
    8          3.973879627800         0.046179153729
    9          1.452888481300        -0.162314143193
   10          0.610429085400        -0.375727172554
   11          0.242162765100        -0.380433979544
   12          3.973879627800         0.004379426387
   13          1.452888481300        -0.015393154362
   14          0.610429085400        -0.035632300743
   15          0.242162765100        -0.036078673469
   16          3.973879627800        -0.018543972379
   17          1.452888481300         0.065179821307
   18          0.610429085400         0.150879211665
   19          0.242162765100         0.152769304743
   20          3.973879627800        -0.002082254309
 S 7
    1         14.400000000000        -3.288699262313
    2         12.000000000000         5.465560640652
    3          5.070147730200        -1.570676524747
    4          0.860333564900         0.525418337118
    5          0.371589388900        -0.385881241213
    6          0.107453362500         0.154162742739
    7          0.039142776600        -0.054350467805
 D 20
    1         14.400000000000         0.000000380629
    2         12.000000000000        -0.000000759090
    3          5.070147730200         0.000001735996
    4          0.860333564900        -0.000033423905
    5          0.371589388900         0.000091189617
    6          0.107453362500         0.000378654633
    7          0.039142776600        -0.002741698048
    8          3.973879627800        -0.001983663473
    9          1.452888481300         0.006972337320
   10          0.610429085400         0.016139669260
   11          0.242162765100         0.016341854019
   12          3.973879627800        -0.001836065310
   13          1.452888481300         0.006453547621
   14          0.610429085400         0.014938767213
   15          0.242162765100         0.015125908041
   16          3.973879627800        -0.011151586598
   17          1.452888481300         0.039196478881
   18          0.610429085400         0.090732587402
   19          0.242162765100         0.091869212080
   20          3.973879627800         0.049490317566
 D 20
    1          3.973879627800         0.015244161553
    2          1.452888481300        -0.053581385134
    3          0.610429085400        -0.124030980554
    4          0.242162765100        -0.125584740646
    5          3.973879627800        -0.000808133465
    6          1.452888481300         0.002840491441
    7          0.610429085400         0.006575211480
    8          0.242162765100         0.006657580427
    9          3.973879627800         0.036671879911
   10          1.452888481300        -0.128897224969
   11          0.610429085400        -0.298373197398
   12          0.242162765100        -0.302110976174
   13          3.973879627800         0.008665285209
   14          1.452888481300        -0.030457430045
   15          0.610429085400        -0.070503308269
   16          0.242162765100        -0.071386516853
   17          3.973879627800         0.002346569113
   18          1.452888481300        -0.008247906778
   19          0.610429085400        -0.019092376254
   20          0.242162765100        -0.019331550146
 D 20
    1         14.400000000000         0.000099633911
    2         12.000000000000        -0.000198700509
    3          5.070147730200         0.000439013485
    4          0.860333564900        -0.003248343583
    5          0.371589388900        -0.013601434860
    6          0.107453362500         0.130451942485
    7          0.039142776600        -0.126209442528
    8          3.973879627800         0.035910494162
    9          1.452888481300        -0.126221046098
   10          0.610429085400        -0.292178339079
   11          0.242162765100        -0.295838513666
   12          3.973879627800         0.003402604747
   13          1.452888481300        -0.011959744376
   14          0.610429085400        -0.027684592669
   15          0.242162765100        -0.028031402918
   16          3.973879627800        -0.014442089152
   17          1.452888481300         0.050762197600
   18          0.610429085400         0.117505083672
   19          0.242162765100         0.118977092591
   20          3.973879627800        -0.001529676668
 F 20
    1          7.418872000000        -0.000476643412
    2          5.698410000000         0.001080316213
    3          1.177721196000        -0.005665173819
    4          0.544785335500        -0.012582166983
    5          7.418872000000        -0.000025375326
    6          5.698410000000         0.000057513385
    7          1.177721196000        -0.000301599957
    8          0.544785335500        -0.000669843705
    9          7.418872000000         0.000107673065
   10          5.698410000000        -0.000244041888
   11          1.177721196000         0.001279754668
   12          0.544785335500         0.002842293536
   13          0.223092701200         0.104843489321
   14          0.223092701200         0.005581610180
   15          0.223092701200        -0.023683994369
   16          0.043100000000         0.254710634274
   17          0.043100000000         0.013560169339
   18          0.043100000000        -0.057538768186
   19          0.373860000000         0.848905183910
   20          0.373860000000         0.118739419073
 P 20
    1          7.418872000000        -0.374521873625
    2          5.698410000000         0.652004063247
    3          1.177721196000        -0.706645252500
    4          0.544785335500        -0.725983195518
    5          7.418872000000        -0.019938625813
    6          5.698410000000         0.034711096897
    7          1.177721196000        -0.037620059773
    8          0.544785335500        -0.038649564421
    9          7.418872000000         0.084603955891
   10          5.698410000000        -0.147286785879
   11          1.177721196000         0.159630152424
   12          0.544785335500         0.163998566109
   13          0.223092701200         2.953637146884
   14          0.223092701200         0.157244396137
   15          0.223092701200        -0.667222409396
   16          0.043100000000         0.978164750577
   17          0.043100000000         0.052075091786
   18          0.043100000000        -0.220966018915
   19          0.373860000000        -0.037392183863
   20          0.373860000000        -0.005245164771
 end
-------------------------------------------
RADIAL EXPECTATION VALUES <R**-3> TO <R**3>
-------------------------------------------
   0 :     0.000000     0.986993     0.952193     1.147181     1.441356     1.986597
   1 :     0.764477     0.758319     0.828469     1.337561     1.986842     3.308814
   2 :     0.764820     0.758584     0.828618     1.337466     1.987283     3.292869
   3 :     0.764794     0.758562     0.828604     1.337502     1.987418     3.293343
   4 :     0.256241     0.346549     0.536236     2.266126     6.241719    81.734024
   5 :     0.000000     0.146865     0.316909     3.087658    11.973088    52.192310
   6 :     0.000000     0.087690     0.237699     5.384039    33.042588   218.994955
   7 :     0.000000     0.507672     0.601011     2.450517     8.768936    42.995175
   8 :     0.000000     4.899637     1.986823     0.609903     0.608946     1.576549
   9 :     0.000000    44.597075     5.378630     0.250595     0.110328     0.192086
  10 :     0.270075     0.352401     0.543053     2.220244     5.950396    95.333905
  11 :     0.270082     0.352409     0.543060     2.220204     5.950154    95.327654
  12 :     0.045945     0.086717     0.257569     4.510147    22.646531   124.700474
  13 :     0.045926     0.086687     0.257517     4.511123    22.656410   124.781574
  14 :     0.024668     0.057615     0.213557     5.316506    30.958174   194.443933
  15 :     0.193924     0.269878     0.463026     2.721401     9.101592   179.768511
  16 :     0.193857     0.269805     0.462953     2.721880     9.104675   179.852841
  17 :     0.036221     0.067604     0.214823     5.853402    39.218265   285.122576
  18 :     0.036246     0.067638     0.214874     5.852490    39.208994   285.046039
  19 :     0.052754     0.092061     0.254482     5.073510    31.050273   215.890314
  20 :     0.108335     0.150393     0.312882     4.190326    20.021536   513.162690
  21 :     0.122939     0.165771     0.327344     4.106829    19.518876   500.347067
  22 :     0.122945     0.165778     0.327350     4.106789    19.518635   500.340791
  23 :     0.199097     0.248301     0.407378     3.605632    16.367437   415.906210
  24 :     0.199164     0.248375     0.407451     3.605154    16.364355   415.821880
  25 :     0.111656     0.213931     0.446136     2.387670     6.034376   111.688022
  26 :     0.111212     0.213647     0.446026     2.386532     6.021211   111.679598
  27 :     0.111212     0.213647     0.446027     2.386531     6.021199   111.679557
  28 :     0.111172     0.213634     0.446043     2.386149     6.018296   111.693149
  29 :     0.111172     0.213634     0.446043     2.386149     6.018296   111.693149
  30 :     0.111172     0.213634     0.446043     2.386149     6.018296   111.693150
  31 :     0.111172     0.213634     0.446043     2.386149     6.018296   111.693149
  32 :     0.326088     0.321132     0.468900     3.090588    13.367138    75.630697
  33 :     0.321445     0.316505     0.464507     3.118288    13.523514    76.166262
  34 :     0.321465     0.316523     0.464522     3.118189    13.522782    76.161265
Making the total density                ... o.k.
o.k.
Initializing the integrals              ... done
Making exponents                        ... done
Making rho(0)                           ... done (         0.000172605)
Integral calculation                    ... Two index integrals                     ... done
Solving the equation system             ... done
atomic density will be written to file TaCO6-_atom73.adf

-------
TIMINGS
-------

Total SCF time: 0 days 0 hours 0 min 1 sec 

Total time                  ....       1.563 sec
Sum of individual times     ....       1.208 sec  ( 77.3%)

Fock matrix formation       ....       0.375 sec  ( 24.0%)
Diagonalization             ....       0.125 sec  (  8.0%)
Density matrix formation    ....       0.002 sec  (  0.1%)
Population analysis         ....       0.000 sec  (  0.0%)
Initial guess               ....       0.001 sec  (  0.1%)
Orbital Transformation      ....       0.000 sec  (  0.0%)
Orbital Orthonormalization  ....       0.000 sec  (  0.0%)
DIIS solution               ....       0.705 sec  ( 45.1%)

Maximum memory used throughout the entire SCF-calculation: 228.3 MB

-------------------------   --------------------
FINAL SINGLE POINT ENERGY       -56.077721639054
-------------------------   --------------------


                            ***************************************
                            *     ORCA property calculations      *
                            ***************************************

                                    ---------------------
                                    Active property flags
                                    ---------------------
   (+) Dipole Moment


------------------------------------------------------------------------------
                       ORCA ELECTRIC PROPERTIES CALCULATION
------------------------------------------------------------------------------

Dipole Moment Calculation                       ... on
Quadrupole Moment Calculation                   ... off
Polarizability Calculation                      ... off
GBWName                                         ... TaCO6-_atom73.gbw
Electron density                                ... TaCO6-_atom73.scfp
The origin for moment calculation is the CENTER OF MASS  = ( 0.000000,  0.000000  0.000000)

-------------
DIPOLE MOMENT
-------------
                                X             Y             Z
Electronic contribution:     -0.00000       0.00000      -0.00000
Nuclear contribution   :      0.00000       0.00000       0.00000
                        -----------------------------------------
Total Dipole Moment    :     -0.00000       0.00000      -0.00000
                        -----------------------------------------
Magnitude (a.u.)       :      0.00000
Magnitude (Debye)      :      0.00000



--------------------
Rotational spectrum 
--------------------
 
Rotational constants in cm-1:     0.000000     0.000000     0.000000 
Rotational constants in MHz :     0.000000     0.000000     0.000000 

 Dipole components along the rotational axes: 
x,y,z [a.u.] :    -0.000000     0.000000    -0.000000 
x,y,z [Debye]:    -0.000000     0.000000    -0.000000 

 

Timings for individual modules:

Sum of individual times         ...        1.769 sec (=   0.029 min)
GTO integral calculation        ...        0.172 sec (=   0.003 min)   9.7 %
SCF iterations                  ...        1.597 sec (=   0.027 min)  90.3 %
                             ****ORCA TERMINATED NORMALLY****
TOTAL RUN TIME: 0 days 0 hours 0 minutes 1 seconds 919 msec
