
                                 *****************
                                 * O   R   C   A *
                                 *****************

                                            #,                                       
                                            ###                                      
                                            ####                                     
                                            #####                                    
                                            ######                                   
                                           ########,                                 
                                     ,,################,,,,,                         
                               ,,#################################,,                 
                          ,,##########################################,,             
                       ,#########################################, ''#####,          
                    ,#############################################,,   '####,        
                  ,##################################################,,,,####,       
                ,###########''''           ''''###############################       
              ,#####''   ,,,,##########,,,,          '''####'''          '####       
            ,##' ,,,,###########################,,,                        '##       
           ' ,,###''''                  '''############,,,                           
         ,,##''                                '''############,,,,        ,,,,,,###''
      ,#''                                            '''#######################'''  
     '                                                          ''''####''''         
             ,#######,   #######,   ,#######,      ##                                
            ,#'     '#,  ##    ##  ,#'     '#,    #''#        ######   ,####,        
            ##       ##  ##   ,#'  ##            #'  '#       #        #'  '#        
            ##       ##  #######   ##           ,######,      #####,   #    #        
            '#,     ,#'  ##    ##  '#,     ,#' ,#      #,         ##   #,  ,#        
             '#######'   ##     ##  '#######'  #'      '#     #####' # '####'        



                  #######################################################
                  #                        -***-                        #
                  #          Department of theory and spectroscopy      #
                  #    Directorship and core code : Frank Neese         #
                  #        Max Planck Institute fuer Kohlenforschung    #
                  #                Kaiser Wilhelm Platz 1               #
                  #                 D-45470 Muelheim/Ruhr               #
                  #                      Germany                        #
                  #                                                     #
                  #                  All rights reserved                #
                  #                        -***-                        #
                  #######################################################



                         Program Version 5.0.4 -  RELEASE  -

 With contributions from (in alphabetic order):
   Daniel Aravena         : Magnetic Suceptibility
   Michael Atanasov       : Ab Initio Ligand Field Theory (pilot matlab implementation)
   Alexander A. Auer      : GIAO ZORA, VPT2 properties, NMR spectrum
   Ute Becker             : Parallelization
   Giovanni Bistoni       : ED, misc. LED, open-shell LED, HFLD
   Martin Brehm           : Molecular dynamics
   Dmytro Bykov           : SCF Hessian
   Vijay G. Chilkuri      : MRCI spin determinant printing, contributions to CSF-ICE
   Dipayan Datta          : RHF DLPNO-CCSD density
   Achintya Kumar Dutta   : EOM-CC, STEOM-CC
   Dmitry Ganyushin       : Spin-Orbit,Spin-Spin,Magnetic field MRCI
   Miquel Garcia          : C-PCM and meta-GGA Hessian, CC/C-PCM, Gaussian charge scheme
   Yang Guo               : DLPNO-NEVPT2, F12-NEVPT2, CIM, IAO-localization
   Andreas Hansen         : Spin unrestricted coupled pair/coupled cluster methods
   Benjamin Helmich-Paris : MC-RPA, TRAH-SCF, COSX integrals
   Lee Huntington         : MR-EOM, pCC
   Robert Izsak           : Overlap fitted RIJCOSX, COSX-SCS-MP3, EOM
   Marcus Kettner         : VPT2
   Christian Kollmar      : KDIIS, OOCD, Brueckner-CCSD(T), CCSD density, CASPT2, CASPT2-K
   Simone Kossmann        : Meta GGA functionals, TD-DFT gradient, OOMP2, MP2 Hessian
   Martin Krupicka        : Initial AUTO-CI
   Lucas Lang             : DCDCAS
   Marvin Lechner         : AUTO-CI (C++ implementation), FIC-MRCC
   Dagmar Lenk            : GEPOL surface, SMD
   Dimitrios Liakos       : Extrapolation schemes; Compound Job, initial MDCI parallelization
   Dimitrios Manganas     : Further ROCIS development; embedding schemes
   Dimitrios Pantazis     : SARC Basis sets
   Anastasios Papadopoulos: AUTO-CI, single reference methods and gradients
   Taras Petrenko         : DFT Hessian,TD-DFT gradient, ASA, ECA, R-Raman, ABS, FL, XAS/XES, NRVS
   Peter Pinski           : DLPNO-MP2, DLPNO-MP2 Gradient
   Christoph Reimann      : Effective Core Potentials
   Marius Retegan         : Local ZFS, SOC
   Christoph Riplinger    : Optimizer, TS searches, QM/MM, DLPNO-CCSD(T), (RO)-DLPNO pert. Triples
   Tobias Risthaus        : Range-separated hybrids, TD-DFT gradient, RPA, STAB
   Michael Roemelt        : Original ROCIS implementation
   Masaaki Saitow         : Open-shell DLPNO-CCSD energy and density
   Barbara Sandhoefer     : DKH picture change effects
   Avijit Sen             : IP-ROCIS
   Kantharuban Sivalingam : CASSCF convergence, NEVPT2, FIC-MRCI
   Bernardo de Souza      : ESD, SOC TD-DFT
   Georgi Stoychev        : AutoAux, RI-MP2 NMR, DLPNO-MP2 response
   Willem Van den Heuvel  : Paramagnetic NMR
   Boris Wezisla          : Elementary symmetry handling
   Frank Wennmohs         : Technical directorship


 We gratefully acknowledge several colleagues who have allowed us to
 interface, adapt or use parts of their codes:
   Stefan Grimme, W. Hujo, H. Kruse, P. Pracht,  : VdW corrections, initial TS optimization,
                  C. Bannwarth, S. Ehlert          DFT functionals, gCP, sTDA/sTD-DF
   Ed Valeev, F. Pavosevic, A. Kumar             : LibInt (2-el integral package), F12 methods
   Garnet Chan, S. Sharma, J. Yang, R. Olivares  : DMRG
   Ulf Ekstrom                                   : XCFun DFT Library
   Mihaly Kallay                                 : mrcc  (arbitrary order and MRCC methods)
   Jiri Pittner, Ondrej Demel                    : Mk-CCSD
   Frank Weinhold                                : gennbo (NPA and NBO analysis)
   Christopher J. Cramer and Donald G. Truhlar   : smd solvation model
   Lars Goerigk                                  : TD-DFT with DH, B97 family of functionals
   V. Asgeirsson, H. Jonsson                     : NEB implementation
   FAccTs GmbH                                   : IRC, NEB, NEB-TS, DLPNO-Multilevel, CI-OPT
                                                   MM, QMMM, 2- and 3-layer-ONIOM, Crystal-QMMM,
                                                   LR-CPCM, SF, NACMEs, symmetry and pop. for TD-DFT,
                                                   nearIR, NL-DFT gradient (VV10), updates on ESD,
                                                   ML-optimized integration grids
   S Lehtola, MJT Oliveira, MAL Marques          : LibXC Library
   Liviu Ungur et al                             : ANISO software


 Your calculation uses the libint2 library for the computation of 2-el integrals
 For citations please refer to: http://libint.valeyev.net

 Your ORCA version has been built with support for libXC version: 5.1.0
 For citations please refer to: https://tddft.org/programs/libxc/

 This ORCA versions uses:
   CBLAS   interface :  Fast vector & matrix operations
   LAPACKE interface :  Fast linear algebra routines
   Shared memory     :  Shared parallel matrices


================================================================================

cite the ECPs for Ta [Def2-ECP] as follows:
Ce-Yb(ecp-28): M. Dolg, H. Stoll, H.Preuss, J. Chem. Phys., 1989, 90, 1730-1734.
Y-Cd(ecp-28), Hf-Hg(ecp-46): D. Andrae,U. Haeussermann, M. Dolg, H. Stoll, H. Preuss, Theor. Chim. Acta, 1990, 77, 123-141.
In-Sb(ecp-28), Tl-Bi(ecp-46): B. Metz, H. Stoll, M. Dolg, J. Chem. Phys., 2000, 113, 2563-2569.
Te-Xe(ecp-28), Po-Rn(ecp-46): K. A. Peterson, D. Figgen, E. Goll, H. Stoll, M. Dolg, J. Chem. Phys., 2003, 119, 11113-11123.
Rb(ecp-28), Cs(ecp-46): T. Leininger, A. Nicklass, W. Kuechle, H. Stoll, M. Dolg, A. Bergner, Chem. Phys. Lett., 1996, 255, 274-280.
Sr(ecp-28), Ba(ecp-46): M. Kaupp, P. V. Schleyer, H. Stoll and H. Preuss, J. Chem. Phys., 1991, 94, 1360-1366.
La(ecp-46): M. Dolg, H. Stoll, A. Savin, H. Preuss, Theor. Chim. Acta, 1989, 75, 173-194.
Lu(ecp-28): X. Cao, M. Dolg, J. Chem. Phys., 2001, 115, 7348-7355.

ECP parameters for Ta [Def2-ECP] have been obtained from:
TURBOMOLE (7.0.2)

----- Orbital basis set information -----
Your calculation utilizes the basis: def2-SVPD
   F. Weigend and R. Ahlrichs, Phys. Chem. Chem. Phys. 7, 3297 (2005).
   D. Rappoport and F. Furche, J. Chem. Phys. 133 134105 (2010).

----- AuxJ basis set information -----
Your calculation utilizes the auxiliary basis: def2/J
   F. Weigend, Phys. Chem. Chem. Phys. 8, 1057 (2006).

================================================================================
                                        WARNINGS
                       Please study these warnings very carefully!
================================================================================


WARNING: Geometry Optimization
  ===> : Switching off AutoStart
         For restart on a previous wavefunction, please use MOREAD

INFO   : the flag for use of the SHARK integral package has been found!

================================================================================
                                       INPUT FILE
================================================================================
NAME = TaCO6-.inp
|  1> !B3LYP def2-SVPD OPT FREQ TightSCF PAL8

|  2> 

|  3> %scf

|  4>   MaxIter 300

|  5> end

|  6> 

|  7> * xyz -1 1 

|  8> Ta         0.27389        0.93013        0.02870

|  9> C          2.48952        0.92813        0.05974

| 10> C          0.27413        3.14227        0.15631

| 11> C         -1.94181        0.93257       -0.00228

| 12> C          0.27335       -1.28214       -0.09889

| 13> O          0.27421        4.26850        0.22072

| 14> O          3.61744        0.92722        0.07540

| 15> O         -3.06965        0.93392       -0.01792

| 16> O          0.27303       -2.40821       -0.16332

| 17> C          0.30585        1.06042       -2.18307

| 18> C          0.24221        0.79935        2.24054

| 19> O          0.32231        1.12721       -3.30901

| 20> O          0.22601        0.73218        3.36636

| 21> **                         ****END OF INPUT****
================================================================================

                       *****************************
                       * Geometry Optimization Run *
                       *****************************

Geometry optimization settings:
Update method            Update   .... BFGS
Choice of coordinates    CoordSys .... Z-matrix Internals
Initial Hessian          InHess   .... Almoef's Model

Convergence Tolerances:
Energy Change            TolE     ....  5.0000e-06 Eh
Max. Gradient            TolMAXG  ....  3.0000e-04 Eh/bohr
RMS Gradient             TolRMSG  ....  1.0000e-04 Eh/bohr
Max. Displacement        TolMAXD  ....  4.0000e-03 bohr
RMS Displacement         TolRMSD  ....  2.0000e-03 bohr
Strict Convergence                ....  False
------------------------------------------------------------------------------
                        ORCA OPTIMIZATION COORDINATE SETUP
------------------------------------------------------------------------------

The optimization will be done in new redundant internal coordinates
Making redundant internal coordinates   ...  (new redundants) done
Evaluating the initial hessian          ...  (Almloef) done
Evaluating the coordinates              ...  done
Calculating the B-matrix                .... done
Calculating the G-matrix                .... done
Diagonalizing the G-matrix              .... done
The first mode is                       ....    3
The number of degrees of freedom        ....   33

    -----------------------------------------------------------------
                    Redundant Internal Coordinates


    -----------------------------------------------------------------
         Definition                    Initial Value    Approx d2E/dq
    -----------------------------------------------------------------
      1. B(C   1,Ta  0)                  2.2158         0.070000   
      2. B(C   2,Ta  0)                  2.2158         0.070008   
      3. B(C   3,Ta  0)                  2.2159         0.069983   
      4. B(C   4,Ta  0)                  2.2159         0.069975   
      5. B(O   5,C   2)                  1.1281         1.464764   
      6. B(O   6,C   1)                  1.1280         1.464986   
      7. B(O   7,C   3)                  1.1279         1.465415   
      8. B(O   8,C   4)                  1.1279         1.465617   
      9. B(C   9,Ta  0)                  2.2158         0.070004   
     10. B(C  10,Ta  0)                  2.2159         0.069980   
     11. B(O  11,C   9)                  1.1280         1.464930   
     12. B(O  12,C  10)                  1.1279         1.465474   
     13. A(C   3,Ta  0,C   9)           90.0230         0.233493   
     14. A(C   2,Ta  0,C   9)           89.9302         0.233505   
     15. A(C   1,Ta  0,C  10)           90.0149         0.233490   
     16. A(C   2,Ta  0,C  10)           90.0824         0.233494   
     17. A(C   4,Ta  0,C  10)           89.9168         0.233478   
     18. A(C   4,Ta  0,C   9)           90.0706         0.233490   
     19. A(C   2,Ta  0,C   3)           89.9894         0.233495   
     20. A(C   3,Ta  0,C   4)           90.0029         0.233480   
     21. A(C   1,Ta  0,C   2)           89.9992         0.233504   
     22. A(C   3,Ta  0,C  10)           89.9842         0.233482   
     23. A(C   1,Ta  0,C   4)           90.0085         0.233488   
     24. A(C   1,Ta  0,C   9)           89.9779         0.233501   
     25. L(Ta  0,C   1,O   6,C   9, 1) 179.9925         0.358042   
     26. L(Ta  0,C   1,O   6,C   9, 2) 179.9928         0.358042   
     27. L(Ta  0,C   2,O   5,C   9, 2) 179.9964         0.358040   
     28. L(Ta  0,C   2,O   5,C   9, 1) 179.9717         0.358040   
     29. L(Ta  0,C   3,O   7,C  10, 2) 179.9917         0.358044   
     30. L(Ta  0,C   3,O   7,C  10, 1) 179.9938         0.358044   
     31. L(Ta  0,C   4,O   8,C  10, 2) 179.9973         0.358046   
     32. L(Ta  0,C   4,O   8,C  10, 1) 179.9739         0.358046   
     33. L(Ta  0,C   9,O  11,C   2, 2) 179.9864         0.358043   
     34. L(Ta  0,C   9,O  11,C   2, 1) 179.9765         0.358043   
     35. L(Ta  0,C  10,O  12,C   4, 2) 180.0053         0.358044   
     36. L(Ta  0,C  10,O  12,C   4, 1) 179.9694         0.358044   
    -----------------------------------------------------------------

Number of atoms                         .... 13
Number of degrees of freedom            .... 36

         *************************************************************
         *                GEOMETRY OPTIMIZATION CYCLE   1            *
         *************************************************************
---------------------------------
CARTESIAN COORDINATES (ANGSTROEM)
---------------------------------
  Ta     0.273890    0.930130    0.028700
  C      2.489520    0.928130    0.059740
  C      0.274130    3.142270    0.156310
  C     -1.941810    0.932570   -0.002280
  C      0.273350   -1.282140   -0.098890
  O      0.274210    4.268500    0.220720
  O      3.617440    0.927220    0.075400
  O     -3.069650    0.933920   -0.017920
  O      0.273030   -2.408210   -0.163320
  C      0.305850    1.060420   -2.183070
  C      0.242210    0.799350    2.240540
  O      0.322310    1.127210   -3.309010
  O      0.226010    0.732180    3.366360

----------------------------
CARTESIAN COORDINATES (A.U.)
----------------------------
  NO LB      ZA    FRAG     MASS         X           Y           Z
   0 Ta   13.0000*   0   180.948    0.517577    1.757691    0.054235
   1 C     6.0000    0    12.011    4.704511    1.753912    0.112892
   2 C     6.0000    0    12.011    0.518031    5.938030    0.295383
   3 C     6.0000    0    12.011   -3.669489    1.762302   -0.004309
   4 C     6.0000    0    12.011    0.516557   -2.422893   -0.186875
   5 O     8.0000    0    15.999    0.518182    8.066296    0.417100
   6 O     8.0000    0    15.999    6.835971    1.752192    0.142485
   7 O     8.0000    0    15.999   -5.800798    1.764853   -0.033864
   8 O     8.0000    0    15.999    0.515952   -4.550857   -0.308630
   9 C     6.0000    0    12.011    0.577973    2.003903   -4.125404
  10 C     6.0000    0    12.011    0.457711    1.510553    4.234007
  11 O     8.0000    0    15.999    0.609078    2.130118   -6.253123
  12 O     8.0000    0    15.999    0.427097    1.383620    6.361498
* core charge reduced due to ECP

--------------------------------
INTERNAL COORDINATES (ANGSTROEM)
--------------------------------
 Ta     0   0   0     0.000000000000     0.00000000     0.00000000
 C      1   0   0     2.215848320283     0.00000000     0.00000000
 C      1   2   0     2.215817625460    89.99920081     0.00000000
 C      1   2   3     2.215917914545   179.98851604   355.41026516
 C      1   2   3     2.215946310857    90.00854493   180.00081865
 O      3   1   2     1.128070329102   179.97162699    95.13502279
 O      2   1   3     1.128029073251   179.99094805   304.06012416
 O      4   1   3     1.127949244292   179.99143531   313.12793118
 O      5   1   2     1.127911775007   179.97379569    94.21598319
 C      1   2   3     2.215834709224    89.97785615    89.93017691
 C      1   2   3     2.215929424959    90.01486706   269.91763624
 O     10   1   2     1.128039325245   179.97459310   292.29368827
 O     11   1   2     1.127938349955   179.96917132   262.95720684

---------------------------
INTERNAL COORDINATES (A.U.)
---------------------------
 Ta     0   0   0     0.000000000000     0.00000000     0.00000000
 C      1   0   0     4.187346479644     0.00000000     0.00000000
 C      1   2   0     4.187288474835    89.99920081     0.00000000
 C      1   2   3     4.187477993739   179.98851604   355.41026516
 C      1   2   3     4.187531654993    90.00854493   180.00081865
 O      3   1   2     2.131743981805   179.97162699    95.13502279
 O      2   1   3     2.131666019546   179.99094805   304.06012416
 O      4   1   3     2.131515164676   179.99143531   313.12793118
 O      5   1   2     2.131444357989   179.97379569    94.21598319
 C      1   2   3     4.187320758470    89.97785615    89.93017691
 C      1   2   3     4.187499745270    90.01486706   269.91763624
 O     10   1   2     2.131685393007   179.97459310   292.29368827
 O     11   1   2     2.131494577363   179.96917132   262.95720684

---------------------
BASIS SET INFORMATION
---------------------
There are 3 groups of distinct atoms

 Group   1 Type Ta  : 7s7p5d1f contracted to 6s4p2d1f pattern {211111/4111/41/1}
 Group   2 Type C   : 8s4p2d contracted to 4s2p2d pattern {5111/31/11}
 Group   3 Type O   : 8s5p2d contracted to 4s3p2d pattern {5111/311/11}

Atom   0Ta   basis set group =>   1
Atom   1C    basis set group =>   2
Atom   2C    basis set group =>   2
Atom   3C    basis set group =>   2
Atom   4C    basis set group =>   2
Atom   5O    basis set group =>   3
Atom   6O    basis set group =>   3
Atom   7O    basis set group =>   3
Atom   8O    basis set group =>   3
Atom   9C    basis set group =>   2
Atom  10C    basis set group =>   2
Atom  11O    basis set group =>   3
Atom  12O    basis set group =>   3
---------------------------------
AUXILIARY/J BASIS SET INFORMATION
---------------------------------
There are 3 groups of distinct atoms

 Group   1 Type Ta  : 11s5p5d3f3g contracted to 8s5p5d2f3g pattern {41111111/11111/11111/21/111}
 Group   2 Type C   : 12s5p4d2f1g contracted to 6s4p3d1f1g pattern {711111/2111/211/2/1}
 Group   3 Type O   : 12s5p4d2f1g contracted to 6s4p3d1f1g pattern {711111/2111/211/2/1}

Atom   0Ta   basis set group =>   1
Atom   1C    basis set group =>   2
Atom   2C    basis set group =>   2
Atom   3C    basis set group =>   2
Atom   4C    basis set group =>   2
Atom   5O    basis set group =>   3
Atom   6O    basis set group =>   3
Atom   7O    basis set group =>   3
Atom   8O    basis set group =>   3
Atom   9C    basis set group =>   2
Atom  10C    basis set group =>   2
Atom  11O    basis set group =>   3
Atom  12O    basis set group =>   3
-------------------------
ECP PARAMETER INFORMATION
-------------------------

 Group 1, Type Ta ECP Def2-ECP (replacing 60 core electrons, lmax=3)

Atom   0Ta   ECP group =>   1



           ************************************************************
           *        Program running with 8 parallel MPI-processes     *
           *              working on a common directory               *
           ************************************************************
------------------------------------------------------------------------------
                           ORCA GTO INTEGRAL CALCULATION
                           -- RI-GTO INTEGRALS CHOSEN --
------------------------------------------------------------------------------
------------------------------------------------------------------------------
                   ___                                                        
                  /   \      - P O W E R E D   B Y -                         
                 /     \                                                     
                 |  |  |   _    _      __       _____    __    __             
                 |  |  |  | |  | |    /  \     |  _  \  |  |  /  |          
                  \  \/   | |  | |   /    \    | | | |  |  | /  /          
                 / \  \   | |__| |  /  /\  \   | |_| |  |  |/  /          
                |  |  |   |  __  | /  /__\  \  |    /   |      \           
                |  |  |   | |  | | |   __   |  |    \   |  |\   \          
                \     /   | |  | | |  |  |  |  | |\  \  |  | \   \       
                 \___/    |_|  |_| |__|  |__|  |_| \__\ |__|  \__/        
                                                                              
                      - O R C A' S   B I G   F R I E N D -                    
                                      &                                       
                       - I N T E G R A L  F E E D E R -                       
                                                                              
 v1 FN, 2020, v2 2021                                                         
------------------------------------------------------------------------------


Reading SHARK input file TaCO6-.SHARKINP.tmp ... ok
----------------------
SHARK INTEGRAL PACKAGE
----------------------

Number of atoms                             ...     13
Number of basis functions                   ...    293
Number of shells                            ...    115
Maximum angular momentum                    ...      3
Integral batch strategy                     ... SHARK/LIBINT Hybrid
RI-J (if used) integral strategy            ... SPLIT-RIJ (Revised 2003 algorithm where possible)
Printlevel                                  ...      1
Contraction scheme used                     ... SEGMENTED contraction
Coulomb Range Separation                    ... NOT USED
Exchange Range Separation                   ... NOT USED
Finite Nucleus Model                        ... NOT USED
Auxiliary Coulomb fitting basis             ... AVAILABLE
   # of basis functions in Aux-J            ...    677
   # of shells in Aux-J                     ...    203
   Maximum angular momentum in Aux-J        ...      4
Auxiliary J/K fitting basis                 ... NOT available
Auxiliary Correlation fitting basis         ... NOT available
Auxiliary 'external' fitting basis          ... NOT available
Integral threshold                          ...     2.500000e-11
Primitive cut-off                           ...     2.500000e-12
Primitive pair pre-selection threshold      ...     2.500000e-12

Calculating pre-screening integrals         ... done (  0.0 sec) Dimension = 115
Organizing shell pair data                  ... done (  0.1 sec)
Shell pair information
Total number of shell pairs                 ...      6670
Shell pairs after pre-screening             ...      6037
Total number of primitive shell pairs       ...     19084
Primitive shell pairs kept                  ...     13123
          la=0 lb=0:   1278 shell pairs
          la=1 lb=0:   1662 shell pairs
          la=1 lb=1:    568 shell pairs
          la=2 lb=0:   1248 shell pairs
          la=2 lb=1:    836 shell pairs
          la=2 lb=2:    330 shell pairs
          la=3 lb=0:     54 shell pairs
          la=3 lb=1:     34 shell pairs
          la=3 lb=2:     26 shell pairs
          la=3 lb=3:      1 shell pairs

Calculating one electron integrals          ... done (  0.0 sec)
Calculating ECP integrals                   ... done (  0.6 sec)
Calculating RI/J V-Matrix + Cholesky decomp.... done (  0.1 sec)
Calculating Nuclear repulsion               ... done (  0.0 sec) ENN=    711.982322470546 Eh

SHARK setup successfully completed in   1.0 seconds

Maximum memory used throughout the entire GTOINT-calculation: 17.9 MB


           ************************************************************
           *        Program running with 8 parallel MPI-processes     *
           *              working on a common directory               *
           ************************************************************
-------------------------------------------------------------------------------
                                 ORCA SCF
-------------------------------------------------------------------------------

------------
SCF SETTINGS
------------
Hamiltonian:
 Density Functional     Method          .... DFT(GTOs)
 Exchange Functional    Exchange        .... B88
   X-Alpha parameter    XAlpha          ....  0.666667
   Becke's b parameter  XBeta           ....  0.004200
 Correlation Functional Correlation     .... LYP
 LDA part of GGA corr.  LDAOpt          .... VWN-5
 Gradients option       PostSCFGGA      .... off
 Hybrid DFT is turned on
   Fraction HF Exchange ScalHFX         ....  0.200000
   Scaling of DF-GGA-X  ScalDFX         ....  0.720000
   Scaling of DF-GGA-C  ScalDFC         ....  0.810000
   Scaling of DF-LDA-C  ScalLDAC        ....  1.000000
   Perturbative correction              ....  0.000000
   Density functional embedding theory  .... OFF
   NL short-range parameter             ....  4.800000
 RI-approximation to the Coulomb term is turned on
   Number of AuxJ basis functions       .... 677
   RIJ-COSX (HFX calculated with COS-X)).... on


General Settings:
 Integral files         IntName         .... TaCO6-
 Hartree-Fock type      HFTyp           .... RHF
 Total Charge           Charge          ....   -1
 Multiplicity           Mult            ....    1
 Number of Electrons    NEL             ....   98
 Basis Dimension        Dim             ....  293
 Nuclear Repulsion      ENuc            ....    711.9823224705 Eh

Convergence Acceleration:
 DIIS                   CNVDIIS         .... on
   Start iteration      DIISMaxIt       ....    12
   Startup error        DIISStart       ....  0.200000
   # of expansion vecs  DIISMaxEq       ....     5
   Bias factor          DIISBfac        ....   1.050
   Max. coefficient     DIISMaxC        ....  10.000
 Trust-Rad. Augm. Hess. CNVTRAH         .... auto
   Auto Start mean grad. ratio tolernc. ....  1.125000
   Auto Start start iteration           ....    20
   Auto Start num. interpolation iter.  ....    10
   Max. Number of Micro iterations      ....    16
   Max. Number of Macro iterations      .... Maxiter - #DIIS iter
   Number of Davidson start vectors     ....     2
   Converg. threshold I  (grad. norm)   ....   1.000e-05
   Converg. threshold II (energy diff.) ....   1.000e-08
   Grad. Scal. Fac. for Micro threshold ....   0.100
   Minimum threshold for Micro iter.    ....   0.010
   NR start threshold (gradient norm)   ....   0.001
   Initial trust radius                 ....   0.400
   Minimum AH scaling param. (alpha)    ....   1.000
   Maximum AH scaling param. (alpha)    .... 1000.000
   Orbital update algorithm             .... Taylor
   White noise on init. David. guess    .... on
   Maximum white noise                  ....   0.010
   Quad. conv. algorithm                .... NR
 SOSCF                  CNVSOSCF        .... off
 Level Shifting         CNVShift        .... on
   Level shift para.    LevelShift      ....    0.2500
   Turn off err/grad.   ShiftErr        ....    0.0010
 Zerner damping         CNVZerner       .... off
 Static damping         CNVDamp         .... on
   Fraction old density DampFac         ....    0.7000
   Max. Damping (<1)    DampMax         ....    0.9800
   Min. Damping (>=0)   DampMin         ....    0.0000
   Turn off err/grad.   DampErr         ....    0.1000
 Fernandez-Rico         CNVRico         .... off

SCF Procedure:
 Maximum # iterations   MaxIter         ....   300
 SCF integral mode      SCFMode         .... Direct
   Integral package                     .... SHARK and LIBINT hybrid scheme
 Reset frequency        DirectResetFreq ....    20
 Integral Threshold     Thresh          ....  2.500e-11 Eh
 Primitive CutOff       TCut            ....  2.500e-12 Eh

Convergence Tolerance:
 Convergence Check Mode ConvCheckMode   .... Total+1el-Energy
 Convergence forced     ConvForced      .... 0
 Energy Change          TolE            ....  1.000e-08 Eh
 1-El. energy change                    ....  1.000e-05 Eh
 DIIS Error             TolErr          ....  5.000e-07


Diagonalization of the overlap matrix:
Smallest eigenvalue                        ... 2.663e-05
Time for diagonalization                   ...    0.018 sec
Threshold for overlap eigenvalues          ... 1.000e-08
Number of eigenvalues below threshold      ... 0
Time for construction of square roots      ...    0.040 sec
Total time needed                          ...    0.059 sec

Time for model grid setup =    0.139 sec

------------------------------
INITIAL GUESS: MODEL POTENTIAL
------------------------------
Loading Hartree-Fock densities                     ... done
  calling C:\orca_5_0_4\orca TaCO6-_atom73.inp > TaCO6-_atom73.out in order to generate an atomic fitting density for atom 0 (Ta with ECP) on-the-fly... 
    atom 0 (Ta), assumed electronic state with S=4: 1s2 2s2 2p6 3s2 3p6 4s2 3d10 4p6 5s2 4d10 5p6 6s2 4f14 5d3           ... done
Calculating cut-offs                               ... done
Initializing the effective Hamiltonian             ... done
Setting up the integral package (SHARK)            ... done
Starting the Coulomb interaction                   ... done (   0.1 sec)
Reading the grid                                   ... done
Mapping shells                                     ... done
Starting the XC term evaluation                    ... done (   0.1 sec)
  promolecular density results
     # of electrons  =    157.006156712
     EX              =   -398.172902442
     EC              =     -6.920249584
     EX+EC           =   -405.093152026
Transforming the Hamiltonian                       ... done (   0.0 sec)
Diagonalizing the Hamiltonian                      ... done (   0.0 sec)
Back transforming the eigenvectors                 ... done (   0.0 sec)
Now organizing SCF variables                       ... done
                      ------------------
                      INITIAL GUESS DONE (   2.3 sec)
                      ------------------
-------------------
DFT GRID GENERATION
-------------------

General Integration Accuracy     IntAcc      ... 4.388
Radial Grid Type                 RadialGrid  ... OptM3 with GC (2021)
Angular Grid (max. ang.)         AngularGrid ... 4 (Lebedev-302)
Angular grid pruning method      GridPruning ... 4 (adaptive)
Weight generation scheme         WeightScheme... Becke
Basis function cutoff            BFCut       ... 1.0000e-11
Integration weight cutoff        WCut        ... 1.0000e-14
Angular grids for H and He will be reduced by one unit
Partially contracted basis set               ... off
Rotationally invariant grid construction     ... off

Total number of grid points                  ...    86063
Total number of batches                      ...     1350
Average number of points per batch           ...       63
Average number of grid points per atom       ...     6620
Time for grid setup =    0.564 sec

--------------------
COSX GRID GENERATION
--------------------

GRIDX 1
-------
General Integration Accuracy     IntAcc      ... 3.816
Radial Grid Type                 RadialGrid  ... OptM3 with GC (2021)
Angular Grid (max. ang.)         AngularGrid ... 1 (Lebedev-50)
Angular grid pruning method      GridPruning ... 4 (adaptive)
Weight generation scheme         WeightScheme... Becke
Basis function cutoff            BFCut       ... 1.0000e-11
Integration weight cutoff        WCut        ... 1.0000e-14
Angular grids for H and He will be reduced by one unit
Partially contracted basis set               ... on
Rotationally invariant grid construction     ... off

Total number of grid points                  ...    10560
Total number of batches                      ...      168
Average number of points per batch           ...       62
Average number of grid points per atom       ...      812
UseSFitting                                  ... on

GRIDX 2
-------
General Integration Accuracy     IntAcc      ... 4.020
Radial Grid Type                 RadialGrid  ... OptM3 with GC (2021)
Angular Grid (max. ang.)         AngularGrid ... 2 (Lebedev-110)
Angular grid pruning method      GridPruning ... 4 (adaptive)
Weight generation scheme         WeightScheme... Becke
Basis function cutoff            BFCut       ... 1.0000e-11
Integration weight cutoff        WCut        ... 1.0000e-14
Angular grids for H and He will be reduced by one unit
Partially contracted basis set               ... on
Rotationally invariant grid construction     ... off

Total number of grid points                  ...    27987
Total number of batches                      ...      444
Average number of points per batch           ...       63
Average number of grid points per atom       ...     2153
UseSFitting                                  ... on

GRIDX 3
-------
General Integration Accuracy     IntAcc      ... 4.338
Radial Grid Type                 RadialGrid  ... OptM3 with GC (2021)
Angular Grid (max. ang.)         AngularGrid ... 3 (Lebedev-194)
Angular grid pruning method      GridPruning ... 4 (adaptive)
Weight generation scheme         WeightScheme... Becke
Basis function cutoff            BFCut       ... 1.0000e-11
Integration weight cutoff        WCut        ... 1.0000e-14
Angular grids for H and He will be reduced by one unit
Partially contracted basis set               ... on
Rotationally invariant grid construction     ... off

Total number of grid points                  ...    59676
Total number of batches                      ...      936
Average number of points per batch           ...       63
Average number of grid points per atom       ...     4590
UseSFitting                                  ... on

Time for X-Grid setup             =    0.824 sec

--------------
SCF ITERATIONS
--------------
ITER       Energy         Delta-E        Max-DP      RMS-DP      [F,P]     Damp
               ***  Starting incremental Fock matrix formation  ***
  0   -735.4604274521   0.000000000000 0.60106181  0.00650802  0.4350260 0.7000
  1   -735.9412143347  -0.480786882614 0.41696585  0.00439592  0.2215652 0.7000
                               ***Turning on DIIS***
  2   -736.0801914930  -0.138977158353 0.22684738  0.00278072  0.1422990 0.7000
  3   -736.1445359003  -0.064344407205 0.60448200  0.00656434  0.0944364 0.0000
  4   -736.3237444875  -0.179208587269 0.04233896  0.00098124  0.0321834 0.0000
  5   -736.3340593101  -0.010314822600 0.01976135  0.00047147  0.0141519 0.0000
  6   -736.3354949720  -0.001435661846 0.01376854  0.00015220  0.0025429 0.0000
  7   -736.3355853721  -0.000090400169 0.00789100  0.00011558  0.0020194 0.0000
  8   -736.3356101307  -0.000024758609 0.00279162  0.00004652  0.0003790 0.0000
               *** Restarting incremental Fock matrix formation ***
                                   *** Resetting DIIS ***
  9   -736.3356647099  -0.000054579168 0.00278538  0.00006379  0.0001713 0.0000
 10   -736.3356640053   0.000000704613 0.00058367  0.00000817  0.0004379 0.0000
 11   -736.3356648806  -0.000000875301 0.00006939  0.00000145  0.0000538 0.0000
 12   -736.3356648857  -0.000000005144 0.00023818  0.00000389  0.0000322 0.0000
 13   -736.3356649077  -0.000000021964 0.00014875  0.00000231  0.0000072 0.0000
 14   -736.3356649117  -0.000000003947 0.00013176  0.00000222  0.0000013 0.0000
 15   -736.3356648838   0.000000027896 0.00007205  0.00000116  0.0000012 0.0000
                            ***DIIS convergence achieved***

               *****************************************************
               *                     SUCCESS                       *
               *           SCF CONVERGED AFTER  16 CYCLES          *
               *****************************************************

Old exchange energy                            =    -17.224406587 Eh
New exchange energy                            =    -17.224409908 Eh
Exchange energy change after final integration =     -0.000003322 Eh
Total energy after final integration           =   -736.335668197 Eh
Final COS-X integration done in                =     4.219 sec

----------------
TOTAL SCF ENERGY
----------------

Total Energy       :         -736.33566820 Eh          -20036.71218 eV

Components:
Nuclear Repulsion  :          711.98232247 Eh           19374.02395 eV
Electronic Energy  :        -1448.31799067 Eh          -39410.73613 eV
One Electron Energy:        -2452.87370594 Eh          -66746.08684 eV
Two Electron Energy:         1004.55571527 Eh           27335.35072 eV
Max COSX asymmetry :            0.00006891 Eh               0.00188 eV

Virial components:
Potential Energy   :        -1430.33614068 Eh          -38921.42511 eV
Kinetic Energy     :          694.00047248 Eh           18884.71294 eV
Virial Ratio       :            2.06100168


DFT components:
N(Alpha)           :       49.000295589520 electrons
N(Beta)            :       49.000295589520 electrons
N(Total)           :       98.000591179040 electrons
E(X)               :      -68.953710420901 Eh       
E(C)               :       -4.014309036586 Eh       
E(XC)              :      -72.968019457487 Eh       
DFET-embed. en.    :        0.000000000000 Eh       

---------------
SCF CONVERGENCE
---------------

  Last Energy change         ...    8.6649e-09  Tolerance :   1.0000e-08
  Last MAX-Density change    ...    0.0000e+00  Tolerance :   1.0000e-07
  Last RMS-Density change    ...    0.0000e+00  Tolerance :   5.0000e-09
  Last DIIS Error            ...    9.0299e-07  Tolerance :   5.0000e-07

             **** THE GBW FILE WAS UPDATED (TaCO6-.gbw) ****
             **** DENSITY TaCO6-.scfp WAS UPDATED ****
             **** ENERGY FILE WAS UPDATED (TaCO6-.en.tmp) ****
             **** THE GBW FILE WAS UPDATED (TaCO6-.gbw) ****
             **** DENSITY TaCO6-.scfp WAS UPDATED ****
----------------
ORBITAL ENERGIES
----------------

  NO   OCC          E(Eh)            E(eV) 
   0   2.0000     -19.074777      -519.0511 
   1   2.0000     -19.074772      -519.0509 
   2   2.0000     -19.074736      -519.0500 
   3   2.0000     -19.074711      -519.0493 
   4   2.0000     -19.074706      -519.0491 
   5   2.0000     -19.074693      -519.0488 
   6   2.0000     -10.144136      -276.0360 
   7   2.0000     -10.144134      -276.0359 
   8   2.0000     -10.144097      -276.0349 
   9   2.0000     -10.144096      -276.0349 
  10   2.0000     -10.144095      -276.0349 
  11   2.0000     -10.143910      -276.0298 
  12   2.0000      -2.515178       -68.4415 
  13   2.0000      -1.262472       -34.3536 
  14   2.0000      -1.262453       -34.3531 
  15   2.0000      -1.262436       -34.3526 
  16   2.0000      -0.992970       -27.0201 
  17   2.0000      -0.992625       -27.0107 
  18   2.0000      -0.992608       -27.0102 
  19   2.0000      -0.992581       -27.0095 
  20   2.0000      -0.992507       -27.0075 
  21   2.0000      -0.992485       -27.0069 
  22   2.0000      -0.430073       -11.7029 
  23   2.0000      -0.415860       -11.3161 
  24   2.0000      -0.415859       -11.3161 
  25   2.0000      -0.414510       -11.2794 
  26   2.0000      -0.414500       -11.2791 
  27   2.0000      -0.414488       -11.2788 
  28   2.0000      -0.337505        -9.1840 
  29   2.0000      -0.329362        -8.9624 
  30   2.0000      -0.329350        -8.9621 
  31   2.0000      -0.329343        -8.9619 
  32   2.0000      -0.325084        -8.8460 
  33   2.0000      -0.325067        -8.8455 
  34   2.0000      -0.325050        -8.8451 
  35   2.0000      -0.321425        -8.7464 
  36   2.0000      -0.321410        -8.7460 
  37   2.0000      -0.321397        -8.7457 
  38   2.0000      -0.318096        -8.6558 
  39   2.0000      -0.318095        -8.6558 
  40   2.0000      -0.318094        -8.6558 
  41   2.0000      -0.287206        -7.8153 
  42   2.0000      -0.287196        -7.8150 
  43   2.0000      -0.249545        -6.7905 
  44   2.0000      -0.249472        -6.7885 
  45   2.0000      -0.249400        -6.7865 
  46   2.0000      -0.039311        -1.0697 
  47   2.0000      -0.039255        -1.0682 
  48   2.0000      -0.039232        -1.0676 
  49   0.0000       0.090927         2.4742 
  50   0.0000       0.090953         2.4750 
  51   0.0000       0.090977         2.4756 
  52   0.0000       0.115187         3.1344 
  53   0.0000       0.115255         3.1362 
  54   0.0000       0.115326         3.1382 
  55   0.0000       0.126349         3.4381 
  56   0.0000       0.153079         4.1655 
  57   0.0000       0.153094         4.1659 
  58   0.0000       0.153094         4.1659 
  59   0.0000       0.162269         4.4156 
  60   0.0000       0.162270         4.4156 
  61   0.0000       0.162472         4.4211 
  62   0.0000       0.162512         4.4222 
  63   0.0000       0.162562         4.4235 
  64   0.0000       0.189035         5.1439 
  65   0.0000       0.189067         5.1448 
  66   0.0000       0.189096         5.1456 
  67   0.0000       0.199819         5.4374 
  68   0.0000       0.199861         5.4385 
  69   0.0000       0.199890         5.4393 
  70   0.0000       0.215945         5.8761 
  71   0.0000       0.227573         6.1926 
  72   0.0000       0.227586         6.1929 
  73   0.0000       0.227595         6.1932 
  74   0.0000       0.231098         6.2885 
  75   0.0000       0.231139         6.2896 
  76   0.0000       0.231190         6.2910 
  77   0.0000       0.251233         6.8364 
  78   0.0000       0.251235         6.8365 
  79   0.0000       0.266761         7.2589 
  80   0.0000       0.266779         7.2594 
  81   0.0000       0.266781         7.2595 
  82   0.0000       0.288846         7.8599 
  83   0.0000       0.288960         7.8630 
  84   0.0000       0.289062         7.8658 
  85   0.0000       0.297750         8.1022 
  86   0.0000       0.308842         8.4040 
  87   0.0000       0.308878         8.4050 
  88   0.0000       0.321332         8.7439 
  89   0.0000       0.394000        10.7213 
  90   0.0000       0.394077        10.7234 
  91   0.0000       0.394083        10.7235 
  92   0.0000       0.395099        10.7512 
  93   0.0000       0.395123        10.7519 
  94   0.0000       0.395181        10.7534 
  95   0.0000       0.395954        10.7745 
  96   0.0000       0.395957        10.7745 
  97   0.0000       0.412015        11.2115 
  98   0.0000       0.423384        11.5209 
  99   0.0000       0.423532        11.5249 
 100   0.0000       0.423709        11.5297 
 101   0.0000       0.428227        11.6526 
 102   0.0000       0.428245        11.6531 
 103   0.0000       0.428270        11.6538 
 104   0.0000       0.464882        12.6501 
 105   0.0000       0.476481        12.9657 
 106   0.0000       0.476709        12.9719 
 107   0.0000       0.476910        12.9774 
 108   0.0000       0.485420        13.2090 
 109   0.0000       0.485442        13.2096 
 110   0.0000       0.505576        13.7574 
 111   0.0000       0.505608        13.7583 
 112   0.0000       0.535798        14.5798 
 113   0.0000       0.536027        14.5860 
 114   0.0000       0.536300        14.5935 
 115   0.0000       0.547913        14.9095 
 116   0.0000       0.586999        15.9731 
 117   0.0000       0.587116        15.9762 
 118   0.0000       0.587229        15.9793 
 119   0.0000       0.592064        16.1109 
 120   0.0000       0.592194        16.1144 
 121   0.0000       0.592327        16.1180 
 122   0.0000       0.594948        16.1894 
 123   0.0000       0.594955        16.1895 
 124   0.0000       0.594957        16.1896 
 125   0.0000       0.599875        16.3234 
 126   0.0000       0.599905        16.3243 
 127   0.0000       0.610254        16.6059 
 128   0.0000       0.610362        16.6088 
 129   0.0000       0.610454        16.6113 
 130   0.0000       0.649769        17.6811 
 131   0.0000       0.649772        17.6812 
 132   0.0000       0.649786        17.6816 
 133   0.0000       0.667113        18.1531 
 134   0.0000       0.671954        18.2848 
 135   0.0000       0.693189        18.8626 
 136   0.0000       0.693303        18.8657 
 137   0.0000       0.693404        18.8685 
 138   0.0000       0.699424        19.0323 
 139   0.0000       0.699428        19.0324 
 140   0.0000       0.699439        19.0327 
 141   0.0000       0.721055        19.6209 
 142   0.0000       0.721267        19.6267 
 143   0.0000       0.721416        19.6307 
 144   0.0000       0.725757        19.7489 
 145   0.0000       0.726002        19.7555 
 146   0.0000       0.726335        19.7646 
 147   0.0000       0.749868        20.4049 
 148   0.0000       0.749887        20.4055 
 149   0.0000       0.773706        21.0536 
 150   0.0000       0.773712        21.0538 
 151   0.0000       0.773713        21.0538 
 152   0.0000       0.781723        21.2718 
 153   0.0000       0.781746        21.2724 
 154   0.0000       0.782996        21.3064 
 155   0.0000       0.783141        21.3104 
 156   0.0000       0.783164        21.3110 
 157   0.0000       0.839835        22.8531 
 158   0.0000       0.840018        22.8581 
 159   0.0000       0.840228        22.8638 
 160   0.0000       0.851353        23.1665 
 161   0.0000       0.858649        23.3650 
 162   0.0000       0.858722        23.3670 
 163   0.0000       0.924184        25.1483 
 164   0.0000       0.934699        25.4344 
 165   0.0000       0.934782        25.4367 
 166   0.0000       0.934870        25.4391 
 167   0.0000       1.011615        27.5274 
 168   0.0000       1.011739        27.5308 
 169   0.0000       1.024938        27.8900 
 170   0.0000       1.025028        27.8924 
 171   0.0000       1.025093        27.8942 
 172   0.0000       1.053999        28.6808 
 173   0.0000       1.064351        28.9625 
 174   0.0000       1.064404        28.9639 
 175   0.0000       1.064453        28.9652 
 176   0.0000       1.065107        28.9830 
 177   0.0000       1.065148        28.9842 
 178   0.0000       1.080526        29.4026 
 179   0.0000       1.093777        29.7632 
 180   0.0000       1.093972        29.7685 
 181   0.0000       1.094133        29.7729 
 182   0.0000       1.122521        30.5453 
 183   0.0000       1.122559        30.5464 
 184   0.0000       1.122578        30.5469 
 185   0.0000       1.140099        31.0237 
 186   0.0000       1.154671        31.4202 
 187   0.0000       1.168707        31.8021 
 188   0.0000       1.168720        31.8025 
 189   0.0000       1.183521        32.2053 
 190   0.0000       1.183628        32.2082 
 191   0.0000       1.183687        32.2098 
 192   0.0000       1.328719        36.1563 
 193   0.0000       1.329137        36.1676 
 194   0.0000       1.329561        36.1792 
 195   0.0000       1.332899        36.2700 
 196   0.0000       1.332928        36.2708 
 197   0.0000       1.332964        36.2718 
 198   0.0000       1.506223        40.9864 
 199   0.0000       1.506442        40.9924 
 200   0.0000       1.506667        40.9985 
 201   0.0000       1.508303        41.0430 
 202   0.0000       1.508310        41.0432 
 203   0.0000       1.645581        44.7785 
 204   0.0000       1.649858        44.8949 
 205   0.0000       1.649863        44.8950 
 206   0.0000       1.651011        44.9263 
 207   0.0000       1.651212        44.9318 
 208   0.0000       1.651397        44.9368 
 209   0.0000       1.660394        45.1816 
 210   0.0000       1.660396        45.1817 
 211   0.0000       1.660416        45.1822 
 212   0.0000       1.680047        45.7164 
 213   0.0000       1.680301        45.7233 
 214   0.0000       1.680569        45.7306 
 215   0.0000       1.693949        46.0947 
 216   0.0000       1.694184        46.1011 
 217   0.0000       1.694435        46.1079 
 218   0.0000       1.709334        46.5134 
 219   0.0000       1.709588        46.5203 
 220   0.0000       1.709839        46.5271 
 221   0.0000       1.910609        51.9903 
 222   0.0000       1.910684        51.9923 
 223   0.0000       1.910779        51.9949 
 224   0.0000       1.916268        52.1443 
 225   0.0000       1.934930        52.6521 
 226   0.0000       1.934931        52.6521 
 227   0.0000       1.945189        52.9313 
 228   0.0000       1.945340        52.9354 
 229   0.0000       1.945492        52.9395 
 230   0.0000       1.997982        54.3679 
 231   0.0000       2.032954        55.3195 
 232   0.0000       2.033494        55.3342 
 233   0.0000       2.034052        55.3494 
 234   0.0000       2.052221        55.8438 
 235   0.0000       2.052443        55.8498 
 236   0.0000       2.052616        55.8545 
 237   0.0000       2.062426        56.1215 
 238   0.0000       2.062430        56.1216 
 239   0.0000       2.062436        56.1217 
 240   0.0000       2.088456        56.8298 
 241   0.0000       2.088662        56.8354 
 242   0.0000       2.088901        56.8419 
 243   0.0000       2.105837        57.3027 
 244   0.0000       2.105869        57.3036 
 245   0.0000       2.148715        58.4695 
 246   0.0000       2.149130        58.4808 
 247   0.0000       2.149542        58.4920 
 248   0.0000       2.164847        58.9085 
 249   0.0000       2.237303        60.8801 
 250   0.0000       2.237799        60.8936 
 251   0.0000       2.238311        60.9075 
 252   0.0000       2.283188        62.1287 
 253   0.0000       2.283202        62.1291 
 254   0.0000       2.472463        67.2791 
 255   0.0000       2.691319        73.2345 
 256   0.0000       2.691323        73.2346 
 257   0.0000       2.915507        79.3350 
 258   0.0000       2.932837        79.8066 
 259   0.0000       2.955542        80.4244 
 260   0.0000       2.955559        80.4248 
 261   0.0000       2.955572        80.4252 
 262   0.0000       2.964621        80.6714 
 263   0.0000       2.964817        80.6768 
 264   0.0000       2.965040        80.6829 
 265   0.0000       2.973560        80.9147 
 266   0.0000       2.973564        80.9148 
 267   0.0000       2.983989        81.1985 
 268   0.0000       2.983999        81.1988 
 269   0.0000       3.023369        82.2701 
 270   0.0000       3.152457        85.7827 
 271   0.0000       3.152521        85.7844 
 272   0.0000       3.152593        85.7864 
 273   0.0000       3.333022        90.6961 
 274   0.0000       3.333037        90.6965 
 275   0.0000       3.333040        90.6966 
 276   0.0000       3.333554        90.7106 
 277   0.0000       3.333557        90.7107 
 278   0.0000       3.333563        90.7109 
 279   0.0000       3.381101        92.0044 
 280   0.0000       3.381120        92.0049 
 281   0.0000       3.381146        92.0056 
 282   0.0000       3.390015        92.2470 
 283   0.0000       3.390053        92.2480 
 284   0.0000       3.390095        92.2492 
 285   0.0000       3.948194       107.4358 
 286   0.0000       3.952303       107.5476 
 287   0.0000       3.952305       107.5477 
 288   0.0000       3.967881       107.9715 
 289   0.0000       3.967898       107.9720 
 290   0.0000       3.967918       107.9725 
 291   0.0000      71.681149      1950.5432 
 292   0.0000     643.669548     17515.1389 

                    ********************************
                    * MULLIKEN POPULATION ANALYSIS *
                    ********************************

-----------------------
MULLIKEN ATOMIC CHARGES
-----------------------
   0 Ta:   -0.888387
   1 C :    0.246343
   2 C :    0.246625
   3 C :    0.246327
   4 C :    0.246555
   5 O :   -0.265420
   6 O :   -0.264700
   7 O :   -0.264623
   8 O :   -0.265233
   9 C :    0.246635
  10 C :    0.246614
  11 O :   -0.265422
  12 O :   -0.265314
Sum of atomic charges:   -1.0000000

--------------------------------
MULLIKEN REDUCED ORBITAL CHARGES
--------------------------------
  0 Tas       :     2.981450  s :     2.981450
      pz      :     2.190235  p :     6.570537
      px      :     2.190124
      py      :     2.190178
      dz2     :     0.665389  d :     4.279449
      dxz     :     0.984760
      dyz     :     0.980381
      dx2y2   :     0.663796
      dxy     :     0.985122
      f0      :     0.017053  f :     0.056951
      f+1     :     0.007539
      f-1     :     0.007656
      f+2     :     0.001915
      f-2     :     0.000025
      f+3     :     0.011423
      f-3     :     0.011341
  1 C s       :     3.475617  s :     3.475617
      pz      :     0.612785  p :     2.180092
      px      :     0.954639
      py      :     0.612668
      dz2     :     0.002206  d :     0.097948
      dxz     :     0.039946
      dyz     :     0.003372
      dx2y2   :     0.012482
      dxy     :     0.039942
  2 C s       :     3.475332  s :     3.475332
      pz      :     0.613925  p :     2.180327
      px      :     0.612704
      py      :     0.953698
      dz2     :     0.002351  d :     0.097716
      dxz     :     0.003529
      dyz     :     0.039565
      dx2y2   :     0.012434
      dxy     :     0.039838
  3 C s       :     3.475623  s :     3.475623
      pz      :     0.612762  p :     2.180091
      px      :     0.954693
      py      :     0.612636
      dz2     :     0.002202  d :     0.097959
      dxz     :     0.039951
      dyz     :     0.003372
      dx2y2   :     0.012479
      dxy     :     0.039954
  4 C s       :     3.475373  s :     3.475373
      pz      :     0.613867  p :     2.180331
      px      :     0.612658
      py      :     0.953805
      dz2     :     0.002349  d :     0.097741
      dxz     :     0.003530
      dyz     :     0.039589
      dx2y2   :     0.012422
      dxy     :     0.039850
  5 O s       :     3.784378  s :     3.784378
      pz      :     1.555510  p :     4.411595
      px      :     1.556398
      py      :     1.299688
      dz2     :     0.005302  d :     0.069447
      dxz     :     0.000190
      dyz     :     0.024311
      dx2y2   :     0.015291
      dxy     :     0.024354
  6 O s       :     3.783644  s :     3.783644
      pz      :     1.556325  p :     4.411595
      px      :     1.298898
      py      :     1.556372
      dz2     :     0.005164  d :     0.069461
      dxz     :     0.024430
      dyz     :     0.000112
      dx2y2   :     0.015321
      dxy     :     0.024434
  7 O s       :     3.783637  s :     3.783637
      pz      :     1.556279  p :     4.411517
      px      :     1.298916
      py      :     1.556322
      dz2     :     0.005167  d :     0.069469
      dxz     :     0.024431
      dyz     :     0.000112
      dx2y2   :     0.015325
      dxy     :     0.024434
  8 O s       :     3.784331  s :     3.784331
      pz      :     1.555410  p :     4.411439
      px      :     1.556306
      py      :     1.299722
      dz2     :     0.005303  d :     0.069463
      dxz     :     0.000190
      dyz     :     0.024311
      dx2y2   :     0.015303
      dxy     :     0.024356
  9 C s       :     3.475308  s :     3.475308
      pz      :     0.953532  p :     2.180345
      px      :     0.612783
      py      :     0.614030
      dz2     :     0.017805  d :     0.097713
      dxz     :     0.039797
      dyz     :     0.039495
      dx2y2   :    -0.002937
      dxy     :     0.003553
 10 C s       :     3.475309  s :     3.475309
      pz      :     0.953592  p :     2.180344
      px      :     0.612744
      py      :     0.614009
      dz2     :     0.017808  d :     0.097733
      dxz     :     0.039808
      dyz     :     0.039496
      dx2y2   :    -0.002934
      dxy     :     0.003555
 11 O s       :     3.784402  s :     3.784402
      pz      :     1.299811  p :     4.411569
      px      :     1.556324
      py      :     1.555434
      dz2     :     0.020447  d :     0.069450
      dxz     :     0.024341
      dyz     :     0.024297
      dx2y2   :     0.000165
      dxy     :     0.000201
 12 O s       :     3.784379  s :     3.784379
      pz      :     1.299849  p :     4.411476
      px      :     1.556265
      py      :     1.555362
      dz2     :     0.020455  d :     0.069460
      dxz     :     0.024341
      dyz     :     0.024297
      dx2y2   :     0.000166
      dxy     :     0.000201


                     *******************************
                     * LOEWDIN POPULATION ANALYSIS *
                     *******************************

----------------------
LOEWDIN ATOMIC CHARGES
----------------------
   0 Ta:   -0.068753
   1 C :    0.035084
   2 C :    0.035065
   3 C :    0.035092
   4 C :    0.035076
   5 O :   -0.190363
   6 O :   -0.190319
   7 O :   -0.190242
   8 O :   -0.190209
   9 C :    0.035063
  10 C :    0.035075
  11 O :   -0.190334
  12 O :   -0.190235

-------------------------------
LOEWDIN REDUCED ORBITAL CHARGES
-------------------------------
  0 Tas       :     2.051864  s :     2.051864
      pz      :     2.270345  p :     6.811104
      px      :     2.270375
      py      :     2.270384
      dz2     :     0.699160  d :     4.030550
      dxz     :     0.878597
      dyz     :     0.876217
      dx2y2   :     0.697850
      dxy     :     0.878726
      f0      :     0.053918  f :     0.175235
      f+1     :     0.022837
      f-1     :     0.023209
      f+2     :     0.004447
      f-2     :     0.000055
      f+3     :     0.035524
      f-3     :     0.035245
  1 C s       :     3.023068  s :     3.023068
      pz      :     0.605465  p :     2.292686
      px      :     1.081860
      py      :     0.605361
      dz2     :     0.063570  d :     0.649162
      dxz     :     0.202837
      dyz     :     0.013162
      dx2y2   :     0.166769
      dxy     :     0.202824
  2 C s       :     3.023081  s :     3.023081
      pz      :     0.606959  p :     2.292708
      px      :     0.605363
      py      :     1.080386
      dz2     :     0.064384  d :     0.649146
      dxz     :     0.013756
      dyz     :     0.202362
      dx2y2   :     0.166394
      dxy     :     0.202249
  3 C s       :     3.023062  s :     3.023062
      pz      :     0.605462  p :     2.292706
      px      :     1.081900
      py      :     0.605344
      dz2     :     0.063567  d :     0.649140
      dxz     :     0.202825
      dyz     :     0.013161
      dx2y2   :     0.166763
      dxy     :     0.202824
  4 C s       :     3.023068  s :     3.023068
      pz      :     0.606930  p :     2.292750
      px      :     0.605356
      py      :     1.080463
      dz2     :     0.064378  d :     0.649106
      dxz     :     0.013754
      dyz     :     0.202362
      dx2y2   :     0.166383
      dxy     :     0.202229
  5 O s       :     3.489748  s :     3.489748
      pz      :     1.446354  p :     4.483016
      px      :     1.445896
      py      :     1.590766
      dz2     :     0.030290  d :     0.217598
      dxz     :     0.000192
      dyz     :     0.048539
      dx2y2   :     0.090765
      dxy     :     0.047812
  6 O s       :     3.489725  s :     3.489725
      pz      :     1.445900  p :     4.483003
      px      :     1.591233
      py      :     1.445870
      dz2     :     0.030408  d :     0.217591
      dxz     :     0.048004
      dyz     :     0.000045
      dx2y2   :     0.091175
      dxy     :     0.047960
  7 O s       :     3.489689  s :     3.489689
      pz      :     1.445862  p :     4.482961
      px      :     1.591278
      py      :     1.445821
      dz2     :     0.030408  d :     0.217591
      dxz     :     0.048004
      dyz     :     0.000045
      dx2y2   :     0.091178
      dxy     :     0.047956
  8 O s       :     3.489676  s :     3.489676
      pz      :     1.446260  p :     4.482934
      px      :     1.445818
      py      :     1.590856
      dz2     :     0.030292  d :     0.217600
      dxz     :     0.000193
      dyz     :     0.048533
      dx2y2   :     0.090769
      dxy     :     0.047813
  9 C s       :     3.023077  s :     3.023077
      pz      :     1.080171  p :     2.292722
      px      :     0.605472
      py      :     0.607079
      dz2     :     0.218250  d :     0.649138
      dxz     :     0.202172
      dyz     :     0.202320
      dx2y2   :     0.012559
      dxy     :     0.013837
 10 C s       :     3.023071  s :     3.023071
      pz      :     1.080206  p :     2.292744
      px      :     0.605454
      py      :     0.607084
      dz2     :     0.218239  d :     0.649109
      dxz     :     0.202159
      dyz     :     0.202310
      dx2y2   :     0.012561
      dxy     :     0.013840
 11 O s       :     3.489734  s :     3.489734
      pz      :     1.590715  p :     4.483000
      px      :     1.445914
      py      :     1.446371
      dz2     :     0.120774  d :     0.217600
      dxz     :     0.047839
      dyz     :     0.048572
      dx2y2   :     0.000201
      dxy     :     0.000215
 12 O s       :     3.489689  s :     3.489689
      pz      :     1.590767  p :     4.482946
      px      :     1.445858
      py      :     1.446322
      dz2     :     0.120771  d :     0.217600
      dxz     :     0.047834
      dyz     :     0.048577
      dx2y2   :     0.000203
      dxy     :     0.000216


                      *****************************
                      * MAYER POPULATION ANALYSIS *
                      *****************************

  NA   - Mulliken gross atomic population
  ZA   - Total nuclear charge
  QA   - Mulliken gross atomic charge
  VA   - Mayer's total valence
  BVA  - Mayer's bonded valence
  FA   - Mayer's free valence

  ATOM       NA         ZA         QA         VA         BVA        FA
  0 Ta    13.8884    13.0000    -0.8884     6.7698     6.7698    -0.0000
  1 C      5.7537     6.0000     0.2463     3.2956     3.2956    -0.0000
  2 C      5.7534     6.0000     0.2466     3.2925     3.2925    -0.0000
  3 C      5.7537     6.0000     0.2463     3.2955     3.2955    -0.0000
  4 C      5.7534     6.0000     0.2466     3.2922     3.2922    -0.0000
  5 O      8.2654     8.0000    -0.2654     2.3081     2.3081     0.0000
  6 O      8.2647     8.0000    -0.2647     2.3089     2.3089    -0.0000
  7 O      8.2646     8.0000    -0.2646     2.3090     2.3090    -0.0000
  8 O      8.2652     8.0000    -0.2652     2.3083     2.3083    -0.0000
  9 C      5.7534     6.0000     0.2466     3.2924     3.2924    -0.0000
 10 C      5.7534     6.0000     0.2466     3.2923     3.2923    -0.0000
 11 O      8.2654     8.0000    -0.2654     2.3082     2.3082    -0.0000
 12 O      8.2653     8.0000    -0.2653     2.3084     2.3084    -0.0000

  Mayer bond orders larger than 0.100000
B(  0-Ta,  1-C ) :   1.0392 B(  0-Ta,  2-C ) :   1.0377 B(  0-Ta,  3-C ) :   1.0390 
B(  0-Ta,  4-C ) :   1.0373 B(  0-Ta,  9-C ) :   1.0376 B(  0-Ta, 10-C ) :   1.0374 
B(  1-C ,  3-C ) :   0.1850 B(  1-C ,  6-O ) :   2.0979 B(  2-C ,  4-C ) :   0.1848 
B(  2-C ,  5-O ) :   2.0966 B(  3-C ,  7-O ) :   2.0980 B(  4-C ,  8-O ) :   2.0969 
B(  9-C , 10-C ) :   0.1847 B(  9-C , 11-O ) :   2.0967 B( 10-C , 12-O ) :   2.0969 


-------
TIMINGS
-------

Total SCF time: 0 days 0 hours 0 min 43 sec 

Total time                  ....      43.794 sec
Sum of individual times     ....      43.144 sec  ( 98.5%)

Fock matrix formation       ....      37.981 sec  ( 86.7%)
  Split-RI-J                ....       2.890 sec  (  7.6% of F)
  Chain of spheres X        ....      26.559 sec  ( 69.9% of F)
  XC integration            ....       7.569 sec  ( 19.9% of F)
    Basis function eval.    ....       1.310 sec  ( 17.3% of XC)
    Density eval.           ....       3.200 sec  ( 42.3% of XC)
    XC-Functional eval.     ....       0.143 sec  (  1.9% of XC)
    XC-Potential eval.      ....       1.473 sec  ( 19.5% of XC)
Diagonalization             ....       0.831 sec  (  1.9%)
Density matrix formation    ....       0.022 sec  (  0.1%)
Population analysis         ....       0.081 sec  (  0.2%)
Initial guess               ....       2.187 sec  (  5.0%)
Orbital Transformation      ....       0.000 sec  (  0.0%)
Orbital Orthonormalization  ....       0.000 sec  (  0.0%)
DIIS solution               ....       0.515 sec  (  1.2%)
Grid generation             ....       1.527 sec  (  3.5%)

Maximum memory used throughout the entire SCF-calculation: 76.6 MB

-------------------------   --------------------
FINAL SINGLE POINT ENERGY      -736.335668196614
-------------------------   --------------------



           ************************************************************
           *        Program running with 8 parallel MPI-processes     *
           *              working on a common directory               *
           ************************************************************
------------------------------------------------------------------------------
                         ORCA SCF GRADIENT CALCULATION
------------------------------------------------------------------------------

 ... reading COSX grid (gridx3)
Gradient of the Kohn-Sham DFT energy:
Kohn-Sham wavefunction type      ... RKS
Hartree-Fock exchange scaling    ...    0.200
Number of operators              ...    1
Number of atoms                  ...   13
Basis set dimensions             ...  293
Integral neglect threshold       ... 2.5e-11
Integral primitive cutoff        ... 2.5e-12
SHARK Integral package           ... ON

Nuc. rep. gradient       (SHARK) ... done (  0.0 sec)
HCore & Overlap gradient (SHARK) ... done (  0.1 sec)
ECP gradient             (SHARK) ... done (  2.1 sec)
RI-J gradient            (SHARK) ... done (  0.8 sec)
COSX-gradient                    ... done (  5.8 sec)
Exchange-correlation gradient    ... done

------------------
CARTESIAN GRADIENT
------------------

   1   Ta  :    0.000002488    0.000005089   -0.000007138
   2   C   :    0.094300740   -0.000081235    0.001328679
   3   C   :    0.000003656    0.094065512    0.005397437
   4   C   :   -0.094489577    0.000114895   -0.001325855
   5   C   :   -0.000026707   -0.094439633   -0.005415658
   6   O   :   -0.000004571   -0.075332026   -0.004302639
   7   O   :   -0.075535327    0.000062437   -0.001052405
   8   O   :    0.075723251   -0.000090457    0.001052481
   9   O   :    0.000021330    0.075705597    0.004323794
  10   C   :    0.001403906    0.005645740   -0.094119365
  11   C   :   -0.001385519   -0.005696664    0.094355474
  12   O   :   -0.001099899   -0.004458962    0.075386398
  13   O   :    0.001086118    0.004499585   -0.075621379

Difference to translation invariance:
           :   -0.0000001128   -0.0000001228   -0.0000001747

Difference to rotation invariance:
           :    0.0009104501   -0.0003674452   -0.0000189951

Norm of the cartesian gradient     ...    0.2963261903
RMS gradient                       ...    0.0474501658
MAX gradient                       ...    0.0944895765

-------
TIMINGS
-------

Total SCF gradient time            ...       12.429 sec

One electron gradient       ....       2.202 sec  ( 17.7%)
RI-J Coulomb gradient       ....       0.813 sec  (  6.5%)
COSX gradient               ....       5.765 sec  ( 46.4%)
XC gradient                 ....       2.846 sec  ( 22.9%)

Maximum memory used throughout the entire SCFGRAD-calculation: 49.6 MB
------------------------------------------------------------------------------
                         ORCA GEOMETRY RELAXATION STEP
------------------------------------------------------------------------------

Reading the OPT-File                    .... done
Getting information on internals        .... done
Copying old internal coords+grads       .... done
Making the new internal coordinates     .... (new redundants).... done
Validating the new internal coordinates .... (new redundants).... done
Calculating the B-matrix                .... done
Calculating the G,G- and P matrices     .... done
Transforming gradient to internals      .... done
Projecting the internal gradient        .... done
Number of atoms                         ....  13
Number of internal coordinates          ....  36
Current Energy                          ....  -736.335668197 Eh
Current gradient norm                   ....     0.296326190 Eh/bohr
Maximum allowed component of the step   ....  0.300
Current trust radius                    ....  0.300
Evaluating the initial hessian          ....  (Almloef) done
Projecting the Hessian                  .... done
Forming the augmented Hessian           .... done
Diagonalizing the augmented Hessian     .... done
Last element of RFO vector              ....  0.918810617
Lowest eigenvalues of augmented Hessian:
 -0.041704865  0.069976766  0.069981076  0.069991583  0.070002113
Length of the computed step             ....  0.429575666
Warning: the length of the step is outside the trust region - taking restricted step instead
The input lambda is                     ....    -0.041705
   iter:   1  x=   -0.072664  g=    3.053587 f(x)=     0.094535
   iter:   2  x=   -0.091903  g=    1.475017 f(x)=     0.028379
   iter:   3  x=   -0.096638  g=    1.014435 f(x)=     0.004803
   iter:   4  x=   -0.096852  g=    0.931739 f(x)=     0.000200
   iter:   5  x=   -0.096852  g=    0.928218 f(x)=     0.000000
   iter:   6  x=   -0.096852  g=    0.928211 f(x)=     0.000000
   iter:   7  x=   -0.096852  g=    0.928211 f(x)=     0.000000
The output lambda is                    ....    -0.096852 (7 iterations)
The final length of the internal step   ....  0.300000000
Converting the step to cartesian space:
 Initial RMS(Int)=    0.0500000000
Transforming coordinates:
 Iter   0:  RMS(Cart)=    0.0507796298 RMS(Int)=    0.0499999975
 Iter   1:  RMS(Cart)=    0.0000056058 RMS(Int)=    0.0000033162
 Iter   2:  RMS(Cart)=    0.0000003417 RMS(Int)=    0.0000002533
 Iter   3:  RMS(Cart)=    0.0000001526 RMS(Int)=    0.0000001239
 Iter   4:  RMS(Cart)=    0.0000000772 RMS(Int)=    0.0000000630
done
Storing new coordinates                 .... done

                                .--------------------.
          ----------------------|Geometry convergence|-------------------------
          Item                value                   Tolerance       Converged
          ---------------------------------------------------------------------
          RMS gradient        0.0318168368            0.0001000000      NO
          MAX gradient        0.0758289741            0.0003000000      NO
          RMS step            0.0500000000            0.0020000000      NO
          MAX step            0.1125353815            0.0040000000      NO
          ........................................................
          Max(Bonds)      0.0596      Max(Angles)    0.02
          Max(Dihed)        0.00      Max(Improp)    0.00
          ---------------------------------------------------------------------

The optimization has not yet converged - more geometry cycles are needed


    ---------------------------------------------------------------------------
                         Redundant Internal Coordinates
                            (Angstroem and degrees)

        Definition                    Value    dE/dq     Step     New-Value
    ----------------------------------------------------------------------------
     1. B(C   1,Ta  0)                2.2158  0.018767 -0.0595    2.1563   
     2. B(C   2,Ta  0)                2.2158  0.018765 -0.0595    2.1563   
     3. B(C   3,Ta  0)                2.2159  0.018768 -0.0595    2.1564   
     4. B(C   4,Ta  0)                2.2159  0.018766 -0.0595    2.1564   
     5. B(O   5,C   2)                1.1281 -0.075455  0.0256    1.1536   
     6. B(O   6,C   1)                1.1280 -0.075543  0.0256    1.1536   
     7. B(O   7,C   3)                1.1279 -0.075731  0.0257    1.1536   
     8. B(O   8,C   4)                1.1279 -0.075829  0.0257    1.1536   
     9. B(C   9,Ta  0)                2.2158  0.018773 -0.0595    2.1563   
    10. B(C  10,Ta  0)                2.2159  0.018774 -0.0596    2.1564   
    11. B(O  11,C   9)                1.1280 -0.075526  0.0256    1.1536   
    12. B(O  12,C  10)                1.1279 -0.075763  0.0257    1.1536   
    13. A(C   3,Ta  0,C   9)           90.02  0.000028   -0.00     90.02   
    14. A(C   2,Ta  0,C   9)           89.93 -0.000072    0.01     89.94   
    15. A(C   1,Ta  0,C  10)           90.01  0.000019   -0.00     90.01   
    16. A(C   2,Ta  0,C  10)           90.08  0.000084   -0.01     90.07   
    17. A(C   4,Ta  0,C  10)           89.92 -0.000088    0.02     89.93   
    18. A(C   4,Ta  0,C   9)           90.07  0.000076   -0.01     90.06   
    19. A(C   2,Ta  0,C   3)           89.99 -0.000009    0.00     89.99   
    20. A(C   3,Ta  0,C   4)           90.00  0.000002   -0.00     90.00   
    21. A(C   1,Ta  0,C   2)           90.00  0.000003   -0.00     90.00   
    22. A(C   3,Ta  0,C  10)           89.98 -0.000023    0.00     89.99   
    23. A(C   1,Ta  0,C   4)           90.01  0.000004   -0.00     90.01   
    24. A(C   1,Ta  0,C   9)           89.98 -0.000024    0.00     89.98   
    25. L(Ta  0,C   1,O   6,C   9, 1) 179.99 -0.000030    0.00    180.00   
    26. L(Ta  0,C   1,O   6,C   9, 2) 179.99 -0.000001    0.00    179.99   
    27. L(Ta  0,C   2,O   5,C   9, 2) 180.00  0.000000   -0.00    180.00   
    28. L(Ta  0,C   2,O   5,C   9, 1) 179.97 -0.000041    0.01    179.98   
    29. L(Ta  0,C   3,O   7,C  10, 2) 179.99 -0.000000    0.00    179.99   
    30. L(Ta  0,C   3,O   7,C  10, 1) 179.99 -0.000027    0.00    180.00   
    31. L(Ta  0,C   4,O   8,C  10, 2) 180.00  0.000000   -0.00    180.00   
    32. L(Ta  0,C   4,O   8,C  10, 1) 179.97 -0.000037    0.00    179.98   
    33. L(Ta  0,C   9,O  11,C   2, 2) 179.99  0.000006   -0.00    179.99   
    34. L(Ta  0,C   9,O  11,C   2, 1) 179.98  0.000026   -0.00    179.97   
    35. L(Ta  0,C  10,O  12,C   4, 2) 180.01 -0.000006    0.00    180.01   
    36. L(Ta  0,C  10,O  12,C   4, 1) 179.97  0.000027   -0.00    179.97   
    ----------------------------------------------------------------------------

         *************************************************************
         *                GEOMETRY OPTIMIZATION CYCLE   2            *
         *************************************************************
---------------------------------
CARTESIAN COORDINATES (ANGSTROEM)
---------------------------------
  Ta     0.273890    0.930129    0.028705
  C      2.430004    0.928169    0.058957
  C      0.274152    3.082843    0.153098
  C     -1.882284    0.932479   -0.001514
  C      0.273383   -1.222701   -0.095693
  O      0.274247    4.234588    0.219186
  O      3.583515    0.927224    0.075071
  O     -3.035772    0.933851   -0.017615
  O      0.273066   -2.374398   -0.161808
  C      0.304880    1.056659   -2.123655
  C      0.243141    0.803201    2.181124
  O      0.321665    1.124891   -3.275142
  O      0.226604    0.734614    3.332565

----------------------------
CARTESIAN COORDINATES (A.U.)
----------------------------
  NO LB      ZA    FRAG     MASS         X           Y           Z
   0 Ta   13.0000*   0   180.948    0.517577    1.757689    0.054244
   1 C     6.0000    0    12.011    4.592042    1.753985    0.111412
   2 C     6.0000    0    12.011    0.518073    5.825730    0.289314
   3 C     6.0000    0    12.011   -3.557002    1.762130   -0.002861
   4 C     6.0000    0    12.011    0.516618   -2.310570   -0.180833
   5 O     8.0000    0    15.999    0.518252    8.002212    0.414202
   6 O     8.0000    0    15.999    6.771862    1.752200    0.141864
   7 O     8.0000    0    15.999   -5.736778    1.764722   -0.033288
   8 O     8.0000    0    15.999    0.516021   -4.486962   -0.305773
   9 C     6.0000    0    12.011    0.576140    1.996796   -4.013126
  10 C     6.0000    0    12.011    0.459469    1.517830    4.121728
  11 O     8.0000    0    15.999    0.607858    2.125736   -6.189122
  12 O     8.0000    0    15.999    0.428219    1.388219    6.297635
* core charge reduced due to ECP

--------------------------------
INTERNAL COORDINATES (ANGSTROEM)
--------------------------------
 Ta     0   0   0     0.000000000000     0.00000000     0.00000000
 C      1   0   0     2.156326848568     0.00000000     0.00000000
 C      1   2   0     2.156305341612    89.99866366     0.00000000
 C      1   2   3     2.156387384316   179.98960723   358.23743156
 C      1   2   3     2.156421139581    90.00785496   180.00018568
 O      3   1   2     1.153639325672   179.97680172    96.39091081
 O      2   1   3     1.153624214610   179.99376183   322.71500564
 O      4   1   3     1.153601009904   179.99346765   333.75403178
 O      5   1   2     1.153593537101   179.97840809    95.11686788
 C      1   2   3     2.156297737086    89.98205511    89.94269092
 C      1   2   3     2.156378265929    90.01152323   269.93222551
 O     10   1   2     1.153629782644   179.97136750   290.79214061
 O     11   1   2     1.153600086644   179.96568386   262.78047195

---------------------------
INTERNAL COORDINATES (A.U.)
---------------------------
 Ta     0   0   0     0.000000000000     0.00000000     0.00000000
 C      1   0   0     4.074867199014     0.00000000     0.00000000
 C      1   2   0     4.074826556758    89.99866366     0.00000000
 C      1   2   3     4.074981594999   179.98960723   358.23743156
 C      1   2   3     4.075045383206    90.00785496   180.00018568
 O      3   1   2     2.180062382842   179.97680172    96.39091081
 O      2   1   3     2.180033827073   179.99376183   322.71500564
 O      4   1   3     2.179989976533   179.99346765   333.75403178
 O      5   1   2     2.179975854983   179.97840809    95.11686788
 C      1   2   3     4.074812186287    89.98205511    89.94269092
 C      1   2   3     4.074964363745    90.01152323   269.93222551
 O     10   1   2     2.180044349133   179.97136750   290.79214061
 O     11   1   2     2.179988231825   179.96568386   262.78047195



[...]
     20       0.015703   0.009938  -0.042884   0.005561  -0.002065  -0.004278
     21       0.055621   0.480424   0.053028  -0.391509   0.145061   0.299023
     22       0.043318  -0.007128   0.014345   0.000440  -0.000163  -0.000319
     23       0.015711   0.009919  -0.042931  -0.005558   0.002066   0.004278
     24       0.005241   0.045624   0.005636   0.000081   0.000064   0.000054
     25       0.463915  -0.067718   0.127071   0.320951   0.266553   0.298052
     26       0.039551   0.000090  -0.037005   0.018737   0.015199   0.017661
     27      -0.012275  -0.090448  -0.003255  -0.000800   0.005524  -0.004035
     28      -0.094682   0.010660   0.003622  -0.004227   0.022441  -0.016346
     29       0.123645   0.034930  -0.463611   0.067252  -0.392046   0.277753
     30      -0.012254  -0.090400  -0.003311   0.000791  -0.005491   0.003962
     31      -0.094641   0.010665   0.003587   0.004215  -0.022478   0.016450
     32       0.123743   0.034819  -0.463586  -0.067253   0.392057  -0.277744
     33       0.003406   0.045153   0.011775  -0.001092   0.005965  -0.004286
     34       0.036598  -0.008559   0.039157  -0.004032   0.024288  -0.017524
     35       0.132871   0.036108  -0.465797   0.070479  -0.410683   0.298647
     36       0.003415   0.045139   0.011725   0.001084  -0.005907   0.004265
     37       0.036540  -0.008557   0.039267   0.004052  -0.024362   0.017542
     38       0.132990   0.035964  -0.465757  -0.070478   0.410692  -0.298643
                 24         25         26         27         28         29    
      0       0.000016  -0.000006   0.000000  -0.000027  -0.000002   0.000047
      1      -0.000008   0.000004  -0.000001   0.000054   0.000071   0.000008
      2       0.000001   0.000006   0.000014   0.000000   0.000073  -0.000035
      3       0.001493   0.002811  -0.005796  -0.000423  -0.005764   0.003126
      4       0.447791  -0.160491   0.007436   0.226991   0.157944   0.378296
      5      -0.083738  -0.214381   0.416091   0.044687   0.420174  -0.202379
      6       0.443424  -0.166846   0.034757   0.408129  -0.128543  -0.192001
      7       0.007455   0.022622   0.013125   0.001398   0.023762  -0.012815
      8      -0.130599  -0.394762  -0.229097  -0.025663  -0.411802   0.221125
      9      -0.001688  -0.002739   0.005788  -0.000359  -0.005697   0.003268
     10      -0.447744   0.160477  -0.007424   0.226911   0.158005   0.378388
     11       0.083778   0.214477  -0.416119   0.044668   0.420114  -0.202328
     12      -0.443559   0.166905  -0.034774   0.408031  -0.128479  -0.191901
     13      -0.007356  -0.022667  -0.013125   0.001344   0.023811  -0.012762
     14       0.130572   0.394689   0.229122  -0.025682  -0.411868   0.221150
     15      -0.144366   0.054314  -0.011316  -0.151615   0.047743   0.071322
     16      -0.002554  -0.007831  -0.004527  -0.000597  -0.009076   0.004769
     17       0.042472   0.128397   0.074490   0.009520   0.152841  -0.082069
     18      -0.000608  -0.001059   0.002041   0.000179   0.002246  -0.001275
     19      -0.145891   0.052276  -0.002412  -0.084311  -0.058666  -0.140514
     20       0.027266   0.069854  -0.135550  -0.016605  -0.156090   0.075169
     21       0.000590   0.001067  -0.002043   0.000147   0.002246  -0.001283
     22       0.145868  -0.052268   0.002407  -0.084288  -0.058683  -0.140538
     23      -0.027286  -0.069897   0.135561  -0.016599  -0.156072   0.075154
     24       0.144424  -0.054339   0.011323  -0.151585   0.047724   0.071293
     25       0.002572   0.007822   0.004529  -0.000571  -0.009067   0.004798
     26      -0.042456  -0.128362  -0.074498   0.009526   0.152858  -0.082072
     27       0.109518   0.204548  -0.414669  -0.407416   0.133994   0.188360
     28       0.136627   0.392003   0.230083  -0.228752  -0.182156  -0.365478
     29       0.009710   0.026292   0.007669  -0.019303  -0.008830  -0.018721
     30      -0.109427  -0.204594   0.414700  -0.407396   0.134045   0.188320
     31      -0.136683  -0.392005  -0.230094  -0.228737  -0.182077  -0.365485
     32      -0.009730  -0.026370  -0.007850  -0.019275  -0.008897  -0.018850
     33      -0.035660  -0.066618   0.135046   0.151380  -0.049795  -0.069988
     34      -0.044444  -0.127522  -0.074855   0.084897   0.067623   0.135641
     35      -0.003063  -0.008249  -0.002340   0.007295   0.003233   0.007100
     36       0.035619   0.066638  -0.135056   0.151373  -0.049808  -0.069976
     37       0.044470   0.127524   0.074865   0.084892   0.067601   0.135642
     38       0.003057   0.008227   0.002312   0.007289   0.003238   0.007112
                 30         31         32         33         34         35    
      0       0.073117   0.010850   0.017277   0.000006  -0.000063  -0.000321
      1       0.020385  -0.035719  -0.063841   0.000252   0.000208  -0.000037
      2       0.001010  -0.066148   0.037299   0.000211  -0.000248   0.000053
      3      -0.022541  -0.008668  -0.001900  -0.015762   0.117911   0.554175
      4      -0.127349   0.221885   0.396948   0.001417   0.001043  -0.000686
      5      -0.000272   0.412316  -0.230402   0.000942   0.000314   0.008210
      6      -0.454597  -0.067504  -0.107296  -0.000008  -0.000392  -0.001782
      7      -0.006286  -0.010862   0.033607  -0.455254  -0.331199   0.057496
      8       0.000718   0.397456  -0.253078  -0.025380  -0.020674   0.003649
      9      -0.022583  -0.008594  -0.001774  -0.015843   0.117844   0.554175
     10      -0.127313   0.221898   0.396967   0.001422   0.001008  -0.000853
     11      -0.000277   0.412294  -0.230386   0.000941   0.000313   0.008206
     12      -0.454547  -0.067492  -0.107274  -0.000073  -0.000439  -0.001773
     13      -0.006217  -0.010859   0.033631  -0.455229  -0.331202   0.057443
     14       0.000722   0.397467  -0.253073  -0.025388  -0.020683   0.003647
     15       0.152700   0.022671   0.036042   0.000015   0.000195   0.000842
     16      -0.005401   0.018263   0.011271   0.339456   0.246992  -0.042877
     17      -0.000678  -0.132559   0.086246   0.019214   0.015033  -0.002638
     18      -0.019293  -0.000664  -0.005984   0.011750  -0.087918  -0.413244
     19       0.042814  -0.074552  -0.133361  -0.000674  -0.000466   0.000456
     20      -0.000284  -0.138601   0.077328  -0.000385  -0.000603  -0.006028
     21      -0.019285  -0.000683  -0.006016   0.011808  -0.087870  -0.413245
     22       0.042810  -0.074554  -0.133364  -0.000678  -0.000440   0.000580
     23      -0.000283  -0.138595   0.077324  -0.000384  -0.000602  -0.006025
     24       0.152685   0.022669   0.036039   0.000064   0.000230   0.000836
     25      -0.005419   0.018265   0.011269   0.339438   0.246994  -0.042840
     26      -0.000679  -0.132560   0.086245   0.019220   0.015038  -0.002637
     27      -0.454877  -0.062351  -0.110988   0.004919  -0.006807  -0.000278
     28      -0.126145   0.243887   0.383007   0.021263  -0.025099   0.005943
     29      -0.013592   0.033179   0.008391  -0.335700   0.443471  -0.103870
     30      -0.454866  -0.062334  -0.110996   0.004863  -0.006731  -0.000294
     31      -0.126146   0.243868   0.382994   0.021332  -0.025182   0.005967
     32      -0.013535   0.033244   0.008494  -0.335752   0.443399  -0.103920
     33       0.152811   0.020605   0.037505  -0.003650   0.004967  -0.000276
     34       0.042309  -0.083239  -0.127670  -0.015461   0.018998  -0.004480
     35       0.005106   0.012375  -0.017865   0.250347  -0.330670   0.077445
     36       0.152807   0.020604   0.037505  -0.003608   0.004910  -0.000263
     37       0.042308  -0.083238  -0.127663  -0.015513   0.019061  -0.004498
     38       0.005092   0.012361  -0.017890   0.250384  -0.330618   0.077481
                 36         37         38    
      0      -0.000000   0.000000   0.000000
      1       0.000000  -0.000001   0.000000
      2      -0.000000  -0.000000  -0.000000
      3       0.167628   0.438249  -0.334738
      4      -0.000145  -0.000381   0.000292
      5       0.002381   0.006231  -0.004755
      6      -0.000045  -0.000007  -0.000034
      7      -0.462665  -0.073828  -0.334135
      8      -0.026890  -0.004287  -0.019412
      9      -0.167558  -0.438289   0.334738
     10       0.000197   0.000513  -0.000390
     11      -0.002379  -0.006229   0.004753
     12       0.000112   0.000019   0.000080
     13       0.462673   0.073958   0.334133
     14       0.026901   0.004296   0.019419
     15       0.000032   0.000005   0.000023
     16       0.331536   0.052904   0.233295
     17       0.019268   0.003075   0.013558
     18      -0.120123  -0.314045   0.233718
     19       0.000104   0.000273  -0.000203
     20      -0.001709  -0.004463   0.003323
     21       0.120070   0.314076  -0.233718
     22      -0.000141  -0.000367   0.000274
     23       0.001707   0.004461  -0.003322
     24      -0.000080  -0.000013  -0.000056
     25      -0.331541  -0.053001  -0.233294
     26      -0.019275  -0.003082  -0.013563
     27       0.004274  -0.005270  -0.004834
     28       0.017406  -0.021438  -0.019685
     29      -0.295229   0.363693   0.334111
     30      -0.004224   0.005207   0.004779
     31      -0.017467   0.021510   0.019750
     32       0.295237  -0.363699  -0.334108
     33      -0.003064   0.003773   0.003379
     34      -0.012476   0.015371   0.013758
     35       0.211551  -0.260614  -0.233277
     36       0.003028  -0.003728  -0.003339
     37       0.012519  -0.015423  -0.013804
     38      -0.211558   0.260618   0.233274


-----------
IR SPECTRUM
-----------

 Mode   freq       eps      Int      T**2         TX        TY        TZ
       cm**-1   L/(mol*cm) km/mol    a.u.
----------------------------------------------------------------------------
  6:     40.77   0.000000    0.00  0.000000  ( 0.000077 -0.000117  0.000134)
  7:     40.93   0.000000    0.00  0.000000  ( 0.000071  0.000269  0.000089)
  8:     40.99   0.000000    0.00  0.000000  ( 0.000059 -0.000026 -0.000377)
  9:     65.73   0.000345    1.75  0.001640  ( 0.028680  0.028246 -0.004430)
 10:     65.77   0.000345    1.75  0.001639  (-0.023688  0.027039  0.018625)
 11:     65.81   0.000346    1.75  0.001641  ( 0.015937 -0.010602  0.035703)
 12:     73.16   0.000000    0.00  0.000000  ( 0.000001 -0.000007  0.000004)
 13:     73.26   0.000000    0.00  0.000000  (-0.000011 -0.000000  0.000000)
 14:     73.34   0.000000    0.00  0.000000  (-0.000007  0.000000  0.000004)
 15:    350.81   0.000000    0.00  0.000000  ( 0.000004 -0.000005 -0.000000)
 16:    350.89   0.000000    0.00  0.000000  ( 0.000004 -0.000000  0.000002)
 17:    351.18   0.000000    0.00  0.000000  (-0.000000  0.000003  0.000011)
 18:    363.05   0.007281   36.80  0.006259  ( 0.008775  0.074329  0.025634)
 19:    363.06   0.007291   36.85  0.006267  ( 0.078091 -0.011383  0.006254)
 20:    363.08   0.007288   36.83  0.006264  ( 0.009590  0.024664 -0.074590)
 21:    384.52   0.000000    0.00  0.000000  ( 0.000004  0.000015  0.000001)
 22:    384.55   0.000000    0.00  0.000000  ( 0.000013 -0.000015  0.000001)
 23:    396.90   0.000000    0.00  0.000000  (-0.000001 -0.000003  0.000000)
 24:    451.30   0.000000    0.00  0.000000  (-0.000015  0.000006 -0.000000)
 25:    451.31   0.000000    0.00  0.000000  ( 0.000006 -0.000004 -0.000003)
 26:    451.35   0.000000    0.00  0.000000  ( 0.000000  0.000000 -0.000011)
 27:    503.14   0.000000    0.00  0.000000  ( 0.000018 -0.000032 -0.000037)
 28:    503.18   0.000000    0.00  0.000000  (-0.000021 -0.000042 -0.000071)
 29:    503.19   0.000000    0.00  0.000000  (-0.000028  0.000018 -0.000056)
 30:    563.11   0.009450   47.75  0.005237  (-0.069703 -0.019423 -0.001028)
 31:    563.16   0.009458   47.80  0.005241  (-0.010362  0.034018  0.063058)
 32:    563.17   0.009437   47.69  0.005229  (-0.016454  0.060824 -0.035480)
 33:   1952.90   0.645669  3262.95  0.103175  (-0.006280 -0.246832 -0.205448)
 34:   1952.93   0.646219  3265.73  0.103261  ( 0.063183 -0.202545  0.241339)
 35:   1952.93   0.645980  3264.52  0.103223  ( 0.314939  0.035714 -0.052543)
 36:   1974.98   0.000000    0.00  0.000000  ( 0.000039 -0.000000  0.000005)
 37:   1974.99   0.000000    0.00  0.000000  (-0.000020  0.000070  0.000001)
 38:   2097.44   0.000000    0.00  0.000000  (-0.000001 -0.000003  0.000001)

* The epsilon (eps) is given for a Dirac delta lineshape.
** The dipole moment derivative (T) already includes vibrational overlap.

The first frequency considered to be a vibration is 6
The total number of vibrations considered is 33


--------------------------
THERMOCHEMISTRY AT 298.15K
--------------------------

Temperature         ... 298.15 K
Pressure            ... 1.00 atm
Total Mass          ... 349.01 AMU

Throughout the following assumptions are being made:
  (1) The electronic state is orbitally nondegenerate
  (2) There are no thermally accessible electronically excited states
  (3) Hindered rotations indicated by low frequency modes are not
      treated as such but are treated as vibrations and this may
      cause some error
  (4) All equations used are the standard statistical mechanics
      equations for an ideal gas
  (5) All vibrations are strictly harmonic

freq.      40.77  E(vib)   ...       0.54 
freq.      40.93  E(vib)   ...       0.54 
freq.      40.99  E(vib)   ...       0.54 
freq.      65.73  E(vib)   ...       0.50 
freq.      65.77  E(vib)   ...       0.50 
freq.      65.81  E(vib)   ...       0.50 
freq.      73.16  E(vib)   ...       0.49 
freq.      73.26  E(vib)   ...       0.49 
freq.      73.34  E(vib)   ...       0.49 
freq.     350.81  E(vib)   ...       0.23 
freq.     350.89  E(vib)   ...       0.23 
freq.     351.18  E(vib)   ...       0.23 
freq.     363.05  E(vib)   ...       0.22 
freq.     363.06  E(vib)   ...       0.22 
freq.     363.08  E(vib)   ...       0.22 
freq.     384.52  E(vib)   ...       0.20 
freq.     384.55  E(vib)   ...       0.20 
freq.     396.90  E(vib)   ...       0.20 
freq.     451.30  E(vib)   ...       0.16 
freq.     451.31  E(vib)   ...       0.16 
freq.     451.35  E(vib)   ...       0.16 
freq.     503.14  E(vib)   ...       0.14 
freq.     503.18  E(vib)   ...       0.14 
freq.     503.19  E(vib)   ...       0.14 
freq.     563.11  E(vib)   ...       0.11 
freq.     563.16  E(vib)   ...       0.11 
freq.     563.17  E(vib)   ...       0.11 
freq.    1952.90  E(vib)   ...       0.00 
freq.    1952.93  E(vib)   ...       0.00 
freq.    1952.93  E(vib)   ...       0.00 
freq.    1974.98  E(vib)   ...       0.00 
freq.    1974.99  E(vib)   ...       0.00 
freq.    2097.44  E(vib)   ...       0.00 

------------
INNER ENERGY
------------

The inner energy is: U= E(el) + E(ZPE) + E(vib) + E(rot) + E(trans)
    E(el)   - is the total energy from the electronic structure calculation
              = E(kin-el) + E(nuc-el) + E(el-el) + E(nuc-nuc)
    E(ZPE)  - the the zero temperature vibrational energy from the frequency calculation
    E(vib)  - the the finite temperature correction to E(ZPE) due to population
              of excited vibrational states
    E(rot)  - is the rotational thermal energy
    E(trans)- is the translational thermal energy

Summary of contributions to the inner energy U:
Electronic energy                ...   -736.35768854 Eh
Zero point energy                ...      0.04626253 Eh      29.03 kcal/mol
Thermal vibrational correction   ...      0.01241605 Eh       7.79 kcal/mol
Thermal rotational correction    ...      0.00141627 Eh       0.89 kcal/mol
Thermal translational correction ...      0.00141627 Eh       0.89 kcal/mol
-----------------------------------------------------------------------
Total thermal energy                   -736.29617742 Eh


Summary of corrections to the electronic energy:
(perhaps to be used in another calculation)
Total thermal correction                  0.01524859 Eh       9.57 kcal/mol
Non-thermal (ZPE) correction              0.04626253 Eh      29.03 kcal/mol
-----------------------------------------------------------------------
Total correction                          0.06151112 Eh      38.60 kcal/mol


--------
ENTHALPY
--------

The enthalpy is H = U + kB*T
                kB is Boltzmann's constant
Total free energy                 ...   -736.29617742 Eh 
Thermal Enthalpy correction       ...      0.00094421 Eh       0.59 kcal/mol
-----------------------------------------------------------------------
Total Enthalpy                    ...   -736.29523321 Eh


Note: Only C1 symmetry has been detected, increase convergence thresholds 
      if your molecule has a higher symmetry. Symmetry factor of 1.0 is   
      used for the rotational entropy correction. 
 

Note: Rotational entropy computed according to Herzberg 
Infrared and Raman Spectra, Chapter V,1, Van Nostrand Reinhold, 1945 
Point Group:  C1, Symmetry Number:   1  
Rotational constants in cm-1:     0.018331     0.018326     0.018321 

Vibrational entropy computed according to the QRRHO of S. Grimme
Chem.Eur.J. 2012 18 9955


-------
ENTROPY
-------

The entropy contributions are T*S = T*(S(el)+S(vib)+S(rot)+S(trans))
     S(el)   - electronic entropy
     S(vib)  - vibrational entropy
     S(rot)  - rotational entropy
     S(trans)- translational entropy
The entropies will be listed as multiplied by the temperature to get
units of energy

Electronic entropy                ...      0.00000000 Eh      0.00 kcal/mol
Vibrational entropy               ...      0.02256248 Eh     14.16 kcal/mol
Rotational entropy                ...      0.01517508 Eh      9.52 kcal/mol
Translational entropy             ...      0.02064147 Eh     12.95 kcal/mol
-----------------------------------------------------------------------
Final entropy term                ...      0.05837904 Eh     36.63 kcal/mol

In case the symmetry of your molecule has not been determined correctly
or in case you have a reason to use a different symmetry number we print 
out the resulting rotational entropy values for sn=1,12 :
 --------------------------------------------------------
|  sn= 1 | S(rot)=       0.01517508 Eh      9.52 kcal/mol|
|  sn= 2 | S(rot)=       0.01452063 Eh      9.11 kcal/mol|
|  sn= 3 | S(rot)=       0.01413779 Eh      8.87 kcal/mol|
|  sn= 4 | S(rot)=       0.01386617 Eh      8.70 kcal/mol|
|  sn= 5 | S(rot)=       0.01365548 Eh      8.57 kcal/mol|
|  sn= 6 | S(rot)=       0.01348334 Eh      8.46 kcal/mol|
|  sn= 7 | S(rot)=       0.01333779 Eh      8.37 kcal/mol|
|  sn= 8 | S(rot)=       0.01321171 Eh      8.29 kcal/mol|
|  sn= 9 | S(rot)=       0.01310050 Eh      8.22 kcal/mol|
|  sn=10 | S(rot)=       0.01300102 Eh      8.16 kcal/mol|
|  sn=11 | S(rot)=       0.01291103 Eh      8.10 kcal/mol|
|  sn=12 | S(rot)=       0.01282888 Eh      8.05 kcal/mol|
 --------------------------------------------------------


-------------------
GIBBS FREE ENERGY
-------------------

The Gibbs free energy is G = H - T*S

Total enthalpy                    ...   -736.29523321 Eh 
Total entropy correction          ...     -0.05837904 Eh    -36.63 kcal/mol
-----------------------------------------------------------------------
Final Gibbs free energy         ...   -736.35361224 Eh

For completeness - the Gibbs free energy minus the electronic energy
G-E(el)                           ...      0.00407629 Eh      2.56 kcal/mol


Timings for individual modules:

Sum of individual times         ...      665.116 sec (=  11.085 min)
GTO integral calculation        ...        6.346 sec (=   0.106 min)   1.0 %
SCF iterations                  ...      198.024 sec (=   3.300 min)  29.8 %
SCF Gradient evaluation         ...       62.589 sec (=   1.043 min)   9.4 %
Geometry relaxation             ...        0.199 sec (=   0.003 min)   0.0 %
Analytical frequency calculation...      397.958 sec (=   6.633 min)  59.8 %
                             ****ORCA TERMINATED NORMALLY****
TOTAL RUN TIME: 0 days 0 hours 11 minutes 6 seconds 352 msec
