
                                 *****************
                                 * O   R   C   A *
                                 *****************

                                            #,                                       
                                            ###                                      
                                            ####                                     
                                            #####                                    
                                            ######                                   
                                           ########,                                 
                                     ,,################,,,,,                         
                               ,,#################################,,                 
                          ,,##########################################,,             
                       ,#########################################, ''#####,          
                    ,#############################################,,   '####,        
                  ,##################################################,,,,####,       
                ,###########''''           ''''###############################       
              ,#####''   ,,,,##########,,,,          '''####'''          '####       
            ,##' ,,,,###########################,,,                        '##       
           ' ,,###''''                  '''############,,,                           
         ,,##''                                '''############,,,,        ,,,,,,###''
      ,#''                                            '''#######################'''  
     '                                                          ''''####''''         
             ,#######,   #######,   ,#######,      ##                                
            ,#'     '#,  ##    ##  ,#'     '#,    #''#        ######   ,####,        
            ##       ##  ##   ,#'  ##            #'  '#       #        #'  '#        
            ##       ##  #######   ##           ,######,      #####,   #    #        
            '#,     ,#'  ##    ##  '#,     ,#' ,#      #,         ##   #,  ,#        
             '#######'   ##     ##  '#######'  #'      '#     #####' # '####'        



                  #######################################################
                  #                        -***-                        #
                  #          Department of theory and spectroscopy      #
                  #    Directorship and core code : Frank Neese         #
                  #        Max Planck Institute fuer Kohlenforschung    #
                  #                Kaiser Wilhelm Platz 1               #
                  #                 D-45470 Muelheim/Ruhr               #
                  #                      Germany                        #
                  #                                                     #
                  #                  All rights reserved                #
                  #                        -***-                        #
                  #######################################################



                         Program Version 5.0.4 -  RELEASE  -

 With contributions from (in alphabetic order):
   Daniel Aravena         : Magnetic Suceptibility
   Michael Atanasov       : Ab Initio Ligand Field Theory (pilot matlab implementation)
   Alexander A. Auer      : GIAO ZORA, VPT2 properties, NMR spectrum
   Ute Becker             : Parallelization
   Giovanni Bistoni       : ED, misc. LED, open-shell LED, HFLD
   Martin Brehm           : Molecular dynamics
   Dmytro Bykov           : SCF Hessian
   Vijay G. Chilkuri      : MRCI spin determinant printing, contributions to CSF-ICE
   Dipayan Datta          : RHF DLPNO-CCSD density
   Achintya Kumar Dutta   : EOM-CC, STEOM-CC
   Dmitry Ganyushin       : Spin-Orbit,Spin-Spin,Magnetic field MRCI
   Miquel Garcia          : C-PCM and meta-GGA Hessian, CC/C-PCM, Gaussian charge scheme
   Yang Guo               : DLPNO-NEVPT2, F12-NEVPT2, CIM, IAO-localization
   Andreas Hansen         : Spin unrestricted coupled pair/coupled cluster methods
   Benjamin Helmich-Paris : MC-RPA, TRAH-SCF, COSX integrals
   Lee Huntington         : MR-EOM, pCC
   Robert Izsak           : Overlap fitted RIJCOSX, COSX-SCS-MP3, EOM
   Marcus Kettner         : VPT2
   Christian Kollmar      : KDIIS, OOCD, Brueckner-CCSD(T), CCSD density, CASPT2, CASPT2-K
   Simone Kossmann        : Meta GGA functionals, TD-DFT gradient, OOMP2, MP2 Hessian
   Martin Krupicka        : Initial AUTO-CI
   Lucas Lang             : DCDCAS
   Marvin Lechner         : AUTO-CI (C++ implementation), FIC-MRCC
   Dagmar Lenk            : GEPOL surface, SMD
   Dimitrios Liakos       : Extrapolation schemes; Compound Job, initial MDCI parallelization
   Dimitrios Manganas     : Further ROCIS development; embedding schemes
   Dimitrios Pantazis     : SARC Basis sets
   Anastasios Papadopoulos: AUTO-CI, single reference methods and gradients
   Taras Petrenko         : DFT Hessian,TD-DFT gradient, ASA, ECA, R-Raman, ABS, FL, XAS/XES, NRVS
   Peter Pinski           : DLPNO-MP2, DLPNO-MP2 Gradient
   Christoph Reimann      : Effective Core Potentials
   Marius Retegan         : Local ZFS, SOC
   Christoph Riplinger    : Optimizer, TS searches, QM/MM, DLPNO-CCSD(T), (RO)-DLPNO pert. Triples
   Tobias Risthaus        : Range-separated hybrids, TD-DFT gradient, RPA, STAB
   Michael Roemelt        : Original ROCIS implementation
   Masaaki Saitow         : Open-shell DLPNO-CCSD energy and density
   Barbara Sandhoefer     : DKH picture change effects
   Avijit Sen             : IP-ROCIS
   Kantharuban Sivalingam : CASSCF convergence, NEVPT2, FIC-MRCI
   Bernardo de Souza      : ESD, SOC TD-DFT
   Georgi Stoychev        : AutoAux, RI-MP2 NMR, DLPNO-MP2 response
   Willem Van den Heuvel  : Paramagnetic NMR
   Boris Wezisla          : Elementary symmetry handling
   Frank Wennmohs         : Technical directorship


 We gratefully acknowledge several colleagues who have allowed us to
 interface, adapt or use parts of their codes:
   Stefan Grimme, W. Hujo, H. Kruse, P. Pracht,  : VdW corrections, initial TS optimization,
                  C. Bannwarth, S. Ehlert          DFT functionals, gCP, sTDA/sTD-DF
   Ed Valeev, F. Pavosevic, A. Kumar             : LibInt (2-el integral package), F12 methods
   Garnet Chan, S. Sharma, J. Yang, R. Olivares  : DMRG
   Ulf Ekstrom                                   : XCFun DFT Library
   Mihaly Kallay                                 : mrcc  (arbitrary order and MRCC methods)
   Jiri Pittner, Ondrej Demel                    : Mk-CCSD
   Frank Weinhold                                : gennbo (NPA and NBO analysis)
   Christopher J. Cramer and Donald G. Truhlar   : smd solvation model
   Lars Goerigk                                  : TD-DFT with DH, B97 family of functionals
   V. Asgeirsson, H. Jonsson                     : NEB implementation
   FAccTs GmbH                                   : IRC, NEB, NEB-TS, DLPNO-Multilevel, CI-OPT
                                                   MM, QMMM, 2- and 3-layer-ONIOM, Crystal-QMMM,
                                                   LR-CPCM, SF, NACMEs, symmetry and pop. for TD-DFT,
                                                   nearIR, NL-DFT gradient (VV10), updates on ESD,
                                                   ML-optimized integration grids
   S Lehtola, MJT Oliveira, MAL Marques          : LibXC Library
   Liviu Ungur et al                             : ANISO software


 Your calculation uses the libint2 library for the computation of 2-el integrals
 For citations please refer to: http://libint.valeyev.net

 Your ORCA version has been built with support for libXC version: 5.1.0
 For citations please refer to: https://tddft.org/programs/libxc/

 This ORCA versions uses:
   CBLAS   interface :  Fast vector & matrix operations
   LAPACKE interface :  Fast linear algebra routines
   Shared memory     :  Shared parallel matrices


================================================================================

cite the ECPs for Ta [Def2-ECP] as follows:
Ce-Yb(ecp-28): M. Dolg, H. Stoll, H.Preuss, J. Chem. Phys., 1989, 90, 1730-1734.
Y-Cd(ecp-28), Hf-Hg(ecp-46): D. Andrae,U. Haeussermann, M. Dolg, H. Stoll, H. Preuss, Theor. Chim. Acta, 1990, 77, 123-141.
In-Sb(ecp-28), Tl-Bi(ecp-46): B. Metz, H. Stoll, M. Dolg, J. Chem. Phys., 2000, 113, 2563-2569.
Te-Xe(ecp-28), Po-Rn(ecp-46): K. A. Peterson, D. Figgen, E. Goll, H. Stoll, M. Dolg, J. Chem. Phys., 2003, 119, 11113-11123.
Rb(ecp-28), Cs(ecp-46): T. Leininger, A. Nicklass, W. Kuechle, H. Stoll, M. Dolg, A. Bergner, Chem. Phys. Lett., 1996, 255, 274-280.
Sr(ecp-28), Ba(ecp-46): M. Kaupp, P. V. Schleyer, H. Stoll and H. Preuss, J. Chem. Phys., 1991, 94, 1360-1366.
La(ecp-46): M. Dolg, H. Stoll, A. Savin, H. Preuss, Theor. Chim. Acta, 1989, 75, 173-194.
Lu(ecp-28): X. Cao, M. Dolg, J. Chem. Phys., 2001, 115, 7348-7355.

ECP parameters for Ta [Def2-ECP] have been obtained from:
TURBOMOLE (7.0.2)

----- Orbital basis set information -----
Your calculation utilizes the basis: def2-SVPD
   F. Weigend and R. Ahlrichs, Phys. Chem. Chem. Phys. 7, 3297 (2005).
   D. Rappoport and F. Furche, J. Chem. Phys. 133 134105 (2010).

----- AuxJ basis set information -----
Your calculation utilizes the auxiliary basis: def2/J
   F. Weigend, Phys. Chem. Chem. Phys. 8, 1057 (2006).

================================================================================
                                        WARNINGS
                       Please study these warnings very carefully!
================================================================================


WARNING: your system is open-shell and RHF/RKS was chosen
  ===> : WILL SWITCH to UHF/UKS


WARNING: Geometry Optimization
  ===> : Switching off AutoStart
         For restart on a previous wavefunction, please use MOREAD

INFO   : the flag for use of the SHARK integral package has been found!

================================================================================
                                       INPUT FILE
================================================================================
NAME = TaCO6.inp
|  1> !B3LYP def2-SVPD OPT FREQ TightSCF PAL8

|  2> 

|  3> %scf

|  4>   MaxIter 300

|  5> end

|  6> 

|  7> * xyz 0 2 

|  8> Ta         0.27389        0.93013        0.02870

|  9> C          2.48952        0.92813        0.05974

| 10> C          0.27413        3.14227        0.15631

| 11> C         -1.94181        0.93257       -0.00228

| 12> C          0.27335       -1.28214       -0.09889

| 13> O          0.27421        4.26850        0.22072

| 14> O          3.61744        0.92722        0.07540

| 15> O         -3.06965        0.93392       -0.01792

| 16> O          0.27303       -2.40821       -0.16332

| 17> C          0.30585        1.06042       -2.18307

| 18> C          0.24221        0.79935        2.24054

| 19> O          0.32231        1.12721       -3.30901

| 20> O          0.22601        0.73218        3.36636

| 21> **                         ****END OF INPUT****
================================================================================

                       *****************************
                       * Geometry Optimization Run *
                       *****************************

Geometry optimization settings:
Update method            Update   .... BFGS
Choice of coordinates    CoordSys .... Z-matrix Internals
Initial Hessian          InHess   .... Almoef's Model

Convergence Tolerances:
Energy Change            TolE     ....  5.0000e-06 Eh
Max. Gradient            TolMAXG  ....  3.0000e-04 Eh/bohr
RMS Gradient             TolRMSG  ....  1.0000e-04 Eh/bohr
Max. Displacement        TolMAXD  ....  4.0000e-03 bohr
RMS Displacement         TolRMSD  ....  2.0000e-03 bohr
Strict Convergence                ....  False
------------------------------------------------------------------------------
                        ORCA OPTIMIZATION COORDINATE SETUP
------------------------------------------------------------------------------

The optimization will be done in new redundant internal coordinates
Making redundant internal coordinates   ...  (new redundants) done
Evaluating the initial hessian          ...  (Almloef) done
Evaluating the coordinates              ...  done
Calculating the B-matrix                .... done
Calculating the G-matrix                .... done
Diagonalizing the G-matrix              .... done
The first mode is                       ....    3
The number of degrees of freedom        ....   33

    -----------------------------------------------------------------
                    Redundant Internal Coordinates


    -----------------------------------------------------------------
         Definition                    Initial Value    Approx d2E/dq
    -----------------------------------------------------------------
      1. B(C   1,Ta  0)                  2.2158         0.070000   
      2. B(C   2,Ta  0)                  2.2158         0.070008   
      3. B(C   3,Ta  0)                  2.2159         0.069983   
      4. B(C   4,Ta  0)                  2.2159         0.069975   
      5. B(O   5,C   2)                  1.1281         1.464764   
      6. B(O   6,C   1)                  1.1280         1.464986   
      7. B(O   7,C   3)                  1.1279         1.465415   
      8. B(O   8,C   4)                  1.1279         1.465617   
      9. B(C   9,Ta  0)                  2.2158         0.070004   
     10. B(C  10,Ta  0)                  2.2159         0.069980   
     11. B(O  11,C   9)                  1.1280         1.464930   
     12. B(O  12,C  10)                  1.1279         1.465474   
     13. A(C   3,Ta  0,C   9)           90.0230         0.233493   
     14. A(C   2,Ta  0,C   9)           89.9302         0.233505   
     15. A(C   1,Ta  0,C  10)           90.0149         0.233490   
     16. A(C   2,Ta  0,C  10)           90.0824         0.233494   
     17. A(C   4,Ta  0,C  10)           89.9168         0.233478   
     18. A(C   4,Ta  0,C   9)           90.0706         0.233490   
     19. A(C   2,Ta  0,C   3)           89.9894         0.233495   
     20. A(C   3,Ta  0,C   4)           90.0029         0.233480   
     21. A(C   1,Ta  0,C   2)           89.9992         0.233504   
     22. A(C   3,Ta  0,C  10)           89.9842         0.233482   
     23. A(C   1,Ta  0,C   4)           90.0085         0.233488   
     24. A(C   1,Ta  0,C   9)           89.9779         0.233501   
     25. L(Ta  0,C   1,O   6,C   9, 1) 179.9925         0.358042   
     26. L(Ta  0,C   1,O   6,C   9, 2) 179.9928         0.358042   
     27. L(Ta  0,C   2,O   5,C   9, 2) 179.9964         0.358040   
     28. L(Ta  0,C   2,O   5,C   9, 1) 179.9717         0.358040   
     29. L(Ta  0,C   3,O   7,C  10, 2) 179.9917         0.358044   
     30. L(Ta  0,C   3,O   7,C  10, 1) 179.9938         0.358044   
     31. L(Ta  0,C   4,O   8,C  10, 2) 179.9973         0.358046   
     32. L(Ta  0,C   4,O   8,C  10, 1) 179.9739         0.358046   
     33. L(Ta  0,C   9,O  11,C   2, 2) 179.9864         0.358043   
     34. L(Ta  0,C   9,O  11,C   2, 1) 179.9765         0.358043   
     35. L(Ta  0,C  10,O  12,C   4, 2) 180.0053         0.358044   
     36. L(Ta  0,C  10,O  12,C   4, 1) 179.9694         0.358044   
    -----------------------------------------------------------------

Number of atoms                         .... 13
Number of degrees of freedom            .... 36

         *************************************************************
         *                GEOMETRY OPTIMIZATION CYCLE   1            *
         *************************************************************
---------------------------------
CARTESIAN COORDINATES (ANGSTROEM)
---------------------------------
  Ta     0.273890    0.930130    0.028700
  C      2.489520    0.928130    0.059740
  C      0.274130    3.142270    0.156310
  C     -1.941810    0.932570   -0.002280
  C      0.273350   -1.282140   -0.098890
  O      0.274210    4.268500    0.220720
  O      3.617440    0.927220    0.075400
  O     -3.069650    0.933920   -0.017920
  O      0.273030   -2.408210   -0.163320
  C      0.305850    1.060420   -2.183070
  C      0.242210    0.799350    2.240540
  O      0.322310    1.127210   -3.309010
  O      0.226010    0.732180    3.366360

----------------------------
CARTESIAN COORDINATES (A.U.)
----------------------------
  NO LB      ZA    FRAG     MASS         X           Y           Z
   0 Ta   13.0000*   0   180.948    0.517577    1.757691    0.054235
   1 C     6.0000    0    12.011    4.704511    1.753912    0.112892
   2 C     6.0000    0    12.011    0.518031    5.938030    0.295383
   3 C     6.0000    0    12.011   -3.669489    1.762302   -0.004309
   4 C     6.0000    0    12.011    0.516557   -2.422893   -0.186875
   5 O     8.0000    0    15.999    0.518182    8.066296    0.417100
   6 O     8.0000    0    15.999    6.835971    1.752192    0.142485
   7 O     8.0000    0    15.999   -5.800798    1.764853   -0.033864
   8 O     8.0000    0    15.999    0.515952   -4.550857   -0.308630
   9 C     6.0000    0    12.011    0.577973    2.003903   -4.125404
  10 C     6.0000    0    12.011    0.457711    1.510553    4.234007
  11 O     8.0000    0    15.999    0.609078    2.130118   -6.253123
  12 O     8.0000    0    15.999    0.427097    1.383620    6.361498
* core charge reduced due to ECP

--------------------------------
INTERNAL COORDINATES (ANGSTROEM)
--------------------------------
 Ta     0   0   0     0.000000000000     0.00000000     0.00000000
 C      1   0   0     2.215848320283     0.00000000     0.00000000
 C      1   2   0     2.215817625460    89.99920081     0.00000000
 C      1   2   3     2.215917914545   179.98851604   355.41026516
 C      1   2   3     2.215946310857    90.00854493   180.00081865
 O      3   1   2     1.128070329102   179.97162699    95.13502279
 O      2   1   3     1.128029073251   179.99094805   304.06012416
 O      4   1   3     1.127949244292   179.99143531   313.12793118
 O      5   1   2     1.127911775007   179.97379569    94.21598319
 C      1   2   3     2.215834709224    89.97785615    89.93017691
 C      1   2   3     2.215929424959    90.01486706   269.91763624
 O     10   1   2     1.128039325245   179.97459310   292.29368827
 O     11   1   2     1.127938349955   179.96917132   262.95720684

---------------------------
INTERNAL COORDINATES (A.U.)
---------------------------
 Ta     0   0   0     0.000000000000     0.00000000     0.00000000
 C      1   0   0     4.187346479644     0.00000000     0.00000000
 C      1   2   0     4.187288474835    89.99920081     0.00000000
 C      1   2   3     4.187477993739   179.98851604   355.41026516
 C      1   2   3     4.187531654993    90.00854493   180.00081865
 O      3   1   2     2.131743981805   179.97162699    95.13502279
 O      2   1   3     2.131666019546   179.99094805   304.06012416
 O      4   1   3     2.131515164676   179.99143531   313.12793118
 O      5   1   2     2.131444357989   179.97379569    94.21598319
 C      1   2   3     4.187320758470    89.97785615    89.93017691
 C      1   2   3     4.187499745270    90.01486706   269.91763624
 O     10   1   2     2.131685393007   179.97459310   292.29368827
 O     11   1   2     2.131494577363   179.96917132   262.95720684

---------------------
BASIS SET INFORMATION
---------------------
There are 3 groups of distinct atoms

 Group   1 Type Ta  : 7s7p5d1f contracted to 6s4p2d1f pattern {211111/4111/41/1}
 Group   2 Type C   : 8s4p2d contracted to 4s2p2d pattern {5111/31/11}
 Group   3 Type O   : 8s5p2d contracted to 4s3p2d pattern {5111/311/11}

Atom   0Ta   basis set group =>   1
Atom   1C    basis set group =>   2
Atom   2C    basis set group =>   2
Atom   3C    basis set group =>   2
Atom   4C    basis set group =>   2
Atom   5O    basis set group =>   3
Atom   6O    basis set group =>   3
Atom   7O    basis set group =>   3
Atom   8O    basis set group =>   3
Atom   9C    basis set group =>   2
Atom  10C    basis set group =>   2
Atom  11O    basis set group =>   3
Atom  12O    basis set group =>   3
---------------------------------
AUXILIARY/J BASIS SET INFORMATION
---------------------------------
There are 3 groups of distinct atoms

 Group   1 Type Ta  : 11s5p5d3f3g contracted to 8s5p5d2f3g pattern {41111111/11111/11111/21/111}
 Group   2 Type C   : 12s5p4d2f1g contracted to 6s4p3d1f1g pattern {711111/2111/211/2/1}
 Group   3 Type O   : 12s5p4d2f1g contracted to 6s4p3d1f1g pattern {711111/2111/211/2/1}

Atom   0Ta   basis set group =>   1
Atom   1C    basis set group =>   2
Atom   2C    basis set group =>   2
Atom   3C    basis set group =>   2
Atom   4C    basis set group =>   2
Atom   5O    basis set group =>   3
Atom   6O    basis set group =>   3
Atom   7O    basis set group =>   3
Atom   8O    basis set group =>   3
Atom   9C    basis set group =>   2
Atom  10C    basis set group =>   2
Atom  11O    basis set group =>   3
Atom  12O    basis set group =>   3
-------------------------
ECP PARAMETER INFORMATION
-------------------------

 Group 1, Type Ta ECP Def2-ECP (replacing 60 core electrons, lmax=3)

Atom   0Ta   ECP group =>   1



           ************************************************************
           *        Program running with 8 parallel MPI-processes     *
           *              working on a common directory               *
           ************************************************************
------------------------------------------------------------------------------
                           ORCA GTO INTEGRAL CALCULATION
                           -- RI-GTO INTEGRALS CHOSEN --
------------------------------------------------------------------------------
------------------------------------------------------------------------------
                   ___                                                        
                  /   \      - P O W E R E D   B Y -                         
                 /     \                                                     
                 |  |  |   _    _      __       _____    __    __             
                 |  |  |  | |  | |    /  \     |  _  \  |  |  /  |          
                  \  \/   | |  | |   /    \    | | | |  |  | /  /          
                 / \  \   | |__| |  /  /\  \   | |_| |  |  |/  /          
                |  |  |   |  __  | /  /__\  \  |    /   |      \           
                |  |  |   | |  | | |   __   |  |    \   |  |\   \          
                \     /   | |  | | |  |  |  |  | |\  \  |  | \   \       
                 \___/    |_|  |_| |__|  |__|  |_| \__\ |__|  \__/        
                                                                              
                      - O R C A' S   B I G   F R I E N D -                    
                                      &                                       
                       - I N T E G R A L  F E E D E R -                       
                                                                              
 v1 FN, 2020, v2 2021                                                         
------------------------------------------------------------------------------


Reading SHARK input file TaCO6.SHARKINP.tmp ... ok
----------------------
SHARK INTEGRAL PACKAGE
----------------------

Number of atoms                             ...     13
Number of basis functions                   ...    293
Number of shells                            ...    115
Maximum angular momentum                    ...      3
Integral batch strategy                     ... SHARK/LIBINT Hybrid
RI-J (if used) integral strategy            ... SPLIT-RIJ (Revised 2003 algorithm where possible)
Printlevel                                  ...      1
Contraction scheme used                     ... SEGMENTED contraction
Coulomb Range Separation                    ... NOT USED
Exchange Range Separation                   ... NOT USED
Finite Nucleus Model                        ... NOT USED
Auxiliary Coulomb fitting basis             ... AVAILABLE
   # of basis functions in Aux-J            ...    677
   # of shells in Aux-J                     ...    203
   Maximum angular momentum in Aux-J        ...      4
Auxiliary J/K fitting basis                 ... NOT available
Auxiliary Correlation fitting basis         ... NOT available
Auxiliary 'external' fitting basis          ... NOT available
Integral threshold                          ...     2.500000e-11
Primitive cut-off                           ...     2.500000e-12
Primitive pair pre-selection threshold      ...     2.500000e-12

Calculating pre-screening integrals         ... done (  0.0 sec) Dimension = 115
Organizing shell pair data                  ... done (  0.1 sec)
Shell pair information
Total number of shell pairs                 ...      6670
Shell pairs after pre-screening             ...      6037
Total number of primitive shell pairs       ...     19084
Primitive shell pairs kept                  ...     13123
          la=0 lb=0:   1278 shell pairs
          la=1 lb=0:   1662 shell pairs
          la=1 lb=1:    568 shell pairs
          la=2 lb=0:   1248 shell pairs
          la=2 lb=1:    836 shell pairs
          la=2 lb=2:    330 shell pairs
          la=3 lb=0:     54 shell pairs
          la=3 lb=1:     34 shell pairs
          la=3 lb=2:     26 shell pairs
          la=3 lb=3:      1 shell pairs

Calculating one electron integrals          ... done (  0.0 sec)
Calculating ECP integrals                   ... done (  0.7 sec)
Calculating RI/J V-Matrix + Cholesky decomp.... done (  0.1 sec)
Calculating Nuclear repulsion               ... done (  0.0 sec) ENN=    711.982322470546 Eh

SHARK setup successfully completed in   1.0 seconds

Maximum memory used throughout the entire GTOINT-calculation: 17.9 MB


           ************************************************************
           *        Program running with 8 parallel MPI-processes     *
           *              working on a common directory               *
           ************************************************************
-------------------------------------------------------------------------------
                                 ORCA SCF
-------------------------------------------------------------------------------

------------
SCF SETTINGS
------------
Hamiltonian:
 Density Functional     Method          .... DFT(GTOs)
 Exchange Functional    Exchange        .... B88
   X-Alpha parameter    XAlpha          ....  0.666667
   Becke's b parameter  XBeta           ....  0.004200
 Correlation Functional Correlation     .... LYP
 LDA part of GGA corr.  LDAOpt          .... VWN-5
 Gradients option       PostSCFGGA      .... off
 Hybrid DFT is turned on
   Fraction HF Exchange ScalHFX         ....  0.200000
   Scaling of DF-GGA-X  ScalDFX         ....  0.720000
   Scaling of DF-GGA-C  ScalDFC         ....  0.810000
   Scaling of DF-LDA-C  ScalLDAC        ....  1.000000
   Perturbative correction              ....  0.000000
   Density functional embedding theory  .... OFF
   NL short-range parameter             ....  4.800000
 RI-approximation to the Coulomb term is turned on
   Number of AuxJ basis functions       .... 677
   RIJ-COSX (HFX calculated with COS-X)).... on


General Settings:
 Integral files         IntName         .... TaCO6
 Hartree-Fock type      HFTyp           .... UHF
 Total Charge           Charge          ....    0
 Multiplicity           Mult            ....    2
 Number of Electrons    NEL             ....   97
 Basis Dimension        Dim             ....  293
 Nuclear Repulsion      ENuc            ....    711.9823224705 Eh

Convergence Acceleration:
 DIIS                   CNVDIIS         .... on
   Start iteration      DIISMaxIt       ....    12
   Startup error        DIISStart       ....  0.200000
   # of expansion vecs  DIISMaxEq       ....     5
   Bias factor          DIISBfac        ....   1.050
   Max. coefficient     DIISMaxC        ....  10.000
 Trust-Rad. Augm. Hess. CNVTRAH         .... auto
   Auto Start mean grad. ratio tolernc. ....  1.125000
   Auto Start start iteration           ....    20
   Auto Start num. interpolation iter.  ....    10
   Max. Number of Micro iterations      ....    16
   Max. Number of Macro iterations      .... Maxiter - #DIIS iter
   Number of Davidson start vectors     ....     2
   Converg. threshold I  (grad. norm)   ....   1.000e-05
   Converg. threshold II (energy diff.) ....   1.000e-08
   Grad. Scal. Fac. for Micro threshold ....   0.100
   Minimum threshold for Micro iter.    ....   0.010
   NR start threshold (gradient norm)   ....   0.001
   Initial trust radius                 ....   0.400
   Minimum AH scaling param. (alpha)    ....   1.000
   Maximum AH scaling param. (alpha)    .... 1000.000
   Orbital update algorithm             .... Taylor
   White noise on init. David. guess    .... on
   Maximum white noise                  ....   0.010
   Quad. conv. algorithm                .... NR
 SOSCF                  CNVSOSCF        .... off
 Level Shifting         CNVShift        .... on
   Level shift para.    LevelShift      ....    0.2500
   Turn off err/grad.   ShiftErr        ....    0.0010
 Zerner damping         CNVZerner       .... off
 Static damping         CNVDamp         .... on
   Fraction old density DampFac         ....    0.7000
   Max. Damping (<1)    DampMax         ....    0.9800
   Min. Damping (>=0)   DampMin         ....    0.0000
   Turn off err/grad.   DampErr         ....    0.1000
 Fernandez-Rico         CNVRico         .... off

SCF Procedure:
 Maximum # iterations   MaxIter         ....   300
 SCF integral mode      SCFMode         .... Direct
   Integral package                     .... SHARK and LIBINT hybrid scheme
 Reset frequency        DirectResetFreq ....    20
 Integral Threshold     Thresh          ....  2.500e-11 Eh
 Primitive CutOff       TCut            ....  2.500e-12 Eh

Convergence Tolerance:
 Convergence Check Mode ConvCheckMode   .... Total+1el-Energy
 Convergence forced     ConvForced      .... 0
 Energy Change          TolE            ....  1.000e-08 Eh
 1-El. energy change                    ....  1.000e-05 Eh
 DIIS Error             TolErr          ....  5.000e-07


Diagonalization of the overlap matrix:
Smallest eigenvalue                        ... 2.663e-05
Time for diagonalization                   ...    0.029 sec
Threshold for overlap eigenvalues          ... 1.000e-08
Number of eigenvalues below threshold      ... 0
Time for construction of square roots      ...    0.036 sec
Total time needed                          ...    0.066 sec

Time for model grid setup =    0.142 sec

------------------------------
INITIAL GUESS: MODEL POTENTIAL
------------------------------
Loading Hartree-Fock densities                     ... done
  calling C:\orca_5_0_4\orca TaCO6_atom73.inp > TaCO6_atom73.out in order to generate an atomic fitting density for atom 0 (Ta with ECP) on-the-fly... 
    atom 0 (Ta), assumed electronic state with S=4: 1s2 2s2 2p6 3s2 3p6 4s2 3d10 4p6 5s2 4d10 5p6 6s2 4f14 5d3           ... done
Calculating cut-offs                               ... done
Initializing the effective Hamiltonian             ... done
Setting up the integral package (SHARK)            ... done
Starting the Coulomb interaction                   ... done (   0.1 sec)
Reading the grid                                   ... done
Mapping shells                                     ... done
Starting the XC term evaluation                    ... done (   0.1 sec)
  promolecular density results
     # of electrons  =    157.006156712
     EX              =   -398.172902442
     EC              =     -6.920249584
     EX+EC           =   -405.093152026
Transforming the Hamiltonian                       ... done (   0.0 sec)
Diagonalizing the Hamiltonian                      ... done (   0.0 sec)
Back transforming the eigenvectors                 ... done (   0.0 sec)
Now organizing SCF variables                       ... done
                      ------------------
                      INITIAL GUESS DONE (   3.7 sec)
                      ------------------
-------------------
DFT GRID GENERATION
-------------------

General Integration Accuracy     IntAcc      ... 4.388
Radial Grid Type                 RadialGrid  ... OptM3 with GC (2021)
Angular Grid (max. ang.)         AngularGrid ... 4 (Lebedev-302)
Angular grid pruning method      GridPruning ... 4 (adaptive)
Weight generation scheme         WeightScheme... Becke
Basis function cutoff            BFCut       ... 1.0000e-11
Integration weight cutoff        WCut        ... 1.0000e-14
Angular grids for H and He will be reduced by one unit
Partially contracted basis set               ... off
Rotationally invariant grid construction     ... off

Total number of grid points                  ...    86063
Total number of batches                      ...     1350
Average number of points per batch           ...       63
Average number of grid points per atom       ...     6620
Time for grid setup =    0.588 sec

--------------------
COSX GRID GENERATION
--------------------

GRIDX 1
-------
General Integration Accuracy     IntAcc      ... 3.816
Radial Grid Type                 RadialGrid  ... OptM3 with GC (2021)
Angular Grid (max. ang.)         AngularGrid ... 1 (Lebedev-50)
Angular grid pruning method      GridPruning ... 4 (adaptive)
Weight generation scheme         WeightScheme... Becke
Basis function cutoff            BFCut       ... 1.0000e-11
Integration weight cutoff        WCut        ... 1.0000e-14
Angular grids for H and He will be reduced by one unit
Partially contracted basis set               ... on
Rotationally invariant grid construction     ... off

Total number of grid points                  ...    10560
Total number of batches                      ...      168
Average number of points per batch           ...       62
Average number of grid points per atom       ...      812
UseSFitting                                  ... on

GRIDX 2
-------
General Integration Accuracy     IntAcc      ... 4.020
Radial Grid Type                 RadialGrid  ... OptM3 with GC (2021)
Angular Grid (max. ang.)         AngularGrid ... 2 (Lebedev-110)
Angular grid pruning method      GridPruning ... 4 (adaptive)
Weight generation scheme         WeightScheme... Becke
Basis function cutoff            BFCut       ... 1.0000e-11
Integration weight cutoff        WCut        ... 1.0000e-14
Angular grids for H and He will be reduced by one unit
Partially contracted basis set               ... on
Rotationally invariant grid construction     ... off

Total number of grid points                  ...    27987
Total number of batches                      ...      444
Average number of points per batch           ...       63
Average number of grid points per atom       ...     2153
UseSFitting                                  ... on

GRIDX 3
-------
General Integration Accuracy     IntAcc      ... 4.338
Radial Grid Type                 RadialGrid  ... OptM3 with GC (2021)
Angular Grid (max. ang.)         AngularGrid ... 3 (Lebedev-194)
Angular grid pruning method      GridPruning ... 4 (adaptive)
Weight generation scheme         WeightScheme... Becke
Basis function cutoff            BFCut       ... 1.0000e-11
Integration weight cutoff        WCut        ... 1.0000e-14
Angular grids for H and He will be reduced by one unit
Partially contracted basis set               ... on
Rotationally invariant grid construction     ... off

Total number of grid points                  ...    59676
Total number of batches                      ...      936
Average number of points per batch           ...       63
Average number of grid points per atom       ...     4590
UseSFitting                                  ... on

Time for X-Grid setup             =    0.855 sec

--------------
SCF ITERATIONS
--------------
ITER       Energy         Delta-E        Max-DP      RMS-DP      [F,P]     Damp
               ***  Starting incremental Fock matrix formation  ***
  0   -735.6995630233   0.000000000000 0.29492850  0.00306000  0.1677295 0.7000
  1   -735.9818116984  -0.282248675055 0.19951913  0.00207380  0.1111200 0.7000
                               ***Turning on DIIS***
  2   -736.0702595526  -0.088447854207 0.35599409  0.00430573  0.0727390 0.0000
  3   -736.1628350442  -0.092575491567 0.10118232  0.00134514  0.0610759 0.0000
  4   -736.2312261250  -0.068391080883 0.02393526  0.00046042  0.0090132 0.0000
  5   -736.2340130114  -0.002786886394 0.00913670  0.00013312  0.0050989 0.0000
  6   -736.2348528106  -0.000839799138 0.00677763  0.00006154  0.0013957 0.0000
  7   -736.2349388162  -0.000086005624 0.00450475  0.00005327  0.0010953 0.0000
  8   -736.2349674517  -0.000028635450 0.00295559  0.00003104  0.0003933 0.0000
               *** Restarting incremental Fock matrix formation ***
                                   *** Resetting DIIS ***
  9   -736.2350282394  -0.000060787748 0.00263801  0.00003097  0.0002727 0.0000
 10   -736.2350378911  -0.000009651738 0.00106488  0.00001045  0.0003501 0.0000
 11   -736.2350446940  -0.000006802829 0.00257062  0.00001809  0.0002705 0.0000
 12   -736.2350546023  -0.000009908378 0.00229735  0.00001669  0.0002606 0.0000
 13   -736.2350637127  -0.000009110339 0.00352005  0.00002468  0.0002551 0.0000
 14   -736.2350765382  -0.000012825542 0.00501899  0.00003558  0.0002472 0.0000
 15   -736.2350940464  -0.000017508138 0.01199163  0.00008271  0.0002304 0.0000
 16   -736.2351301909  -0.000036144530 0.00675222  0.00004780  0.0001942 0.0000
 17   -736.2351479591  -0.000017768164 0.01630510  0.00011241  0.0001728 0.0000
 18   -736.2351804528  -0.000032493758 0.00135564  0.00000999  0.0001383 0.0000
 19   -736.2351786997   0.000001753129 0.01205459  0.00008419  0.0001204 0.0000

 WARNING: the maximum gradient error descreased on average only by a factor   1.1
          during the last 20 iterations

                      *** Initiating the TRAH-SCF procedure ***


TRAH GRIDX
----------

General Integration Accuracy     IntAcc      ... 3.067
Radial Grid Type                 RadialGrid  ... OptM3 with GC (2021)
Angular Grid (max. ang.)         AngularGrid ... 1 (Lebedev-50)
Angular grid pruning method      GridPruning ... 4 (adaptive)
Weight generation scheme         WeightScheme... Becke
Basis function cutoff            BFCut       ... 1.0000e-11
Integration weight cutoff        WCut        ... 1.0000e-14
Angular grids for H and He will be reduced by one unit
Partially contracted basis set               ... on
Rotationally invariant grid construction     ... off

Total number of grid points                  ...     6044
Total number of batches                      ...       99
Average number of points per batch           ...       61
Average number of grid points per atom       ...      465


TRAH GRID
---------

General Integration Accuracy     IntAcc      ... 3.467
Radial Grid Type                 RadialGrid  ... OptM3 with GC (2021)
Angular Grid (max. ang.)         AngularGrid ... 1 (Lebedev-50)
Angular grid pruning method      GridPruning ... 4 (adaptive)
Weight generation scheme         WeightScheme... Becke
Basis function cutoff            BFCut       ... 1.0000e-11
Integration weight cutoff        WCut        ... 1.0000e-14
Angular grids for H and He will be reduced by one unit
Partially contracted basis set               ... off
Rotationally invariant grid construction     ... off

Total number of grid points                  ...    16736
Total number of batches                      ...      266
Average number of points per batch           ...       62
Average number of grid points per atom       ...     1287

 --------------------------------------------------------------------------------------------
   Iter.        energy            ||Error||_2        Shift      TRadius  Mac/Mic        Rej.
 --------------------------------------------------------------------------------------------
    0       -736.235195128036     5.803098e-04                     0.400 (TRAH MAcro)   No
    0     dE    -1.349292e-07     6.588112e-04    -1.3493e-07      0.000 (TRAH MIcro)
    0     dE    -1.833928e-06     1.414745e-03    -1.8338e-06      0.009 (TRAH MIcro)
    0     dE    -4.053865e-06     2.062008e-03    -4.0517e-06      0.023 (TRAH MIcro)
    0     dE    -7.832200e-06     1.634093e-03    -7.8134e-06      0.049 (TRAH MIcro)
    0     dE    -1.004796e-05     1.078449e-03    -1.0006e-05      0.065 (TRAH MIcro)
    0     dE    -1.091626e-05     4.891890e-04    -1.0861e-05      0.071 (TRAH MIcro)
    0     dE    -1.106819e-05     2.051680e-04    -1.1011e-05      0.072 (TRAH MIcro)
    0     dE    -1.110405e-05     1.036202e-04    -1.1046e-05      0.072 (TRAH MIcro)
    0     dE    -1.111348e-05     5.763308e-05    -1.1055e-05      0.073 (TRAH MIcro)
    0     dE    -1.111664e-05     4.565268e-05    -1.1058e-05      0.073 (TRAH MIcro)
    0     dE    -1.111869e-05     5.421908e-05    -1.1060e-05      0.073 (TRAH MIcro)
    0     dE    -1.112635e-05     8.597295e-05    -1.1068e-05      0.073 (TRAH MIcro)
    0     dE    -1.113526e-05     5.917689e-05    -1.1077e-05      0.073 (TRAH MIcro)
    0     dE    -1.113751e-05     3.138339e-05    -1.1079e-05      0.073 (TRAH MIcro)
    1       -736.235206648883     2.919392e-04                           (NR   MAcro)
    1     dE    -7.036365e-08     1.221109e-04                           (NR   MIcro)
    1     dE    -8.140890e-08     5.758626e-05                           (NR   MIcro)
    1     dE    -8.416002e-08     2.996415e-05                           (NR   MIcro)
    1     dE    -8.589741e-08     3.357621e-05                           (NR   MIcro)
    1     dE    -8.861975e-08     6.139245e-05                           (NR   MIcro)
    1     dE    -9.394770e-08     6.801545e-05                           (NR   MIcro)
    1     dE    -1.003984e-07     4.340554e-05                           (NR   MIcro)
    1     dE    -1.016688e-07     2.899997e-05                           (NR   MIcro)
    1     dE    -1.023992e-07     1.110981e-05                           (NR   MIcro)
    1     dE    -1.024653e-07     5.732708e-06                           (NR   MIcro)
    1     dE    -1.024849e-07     1.668070e-06                           (NR   MIcro)
    1     dE    -1.024868e-07     9.465929e-07                           (NR   MIcro)
    2       -736.235206763400     2.477916e-06                           (NR   MAcro)
    2     dE    -5.329850e-12     1.501654e-06                           (NR   MIcro)
    2     dE    -6.841478e-12     4.453943e-07                           (NR   MIcro)
    3       -736.235206763385     4.469479e-07                           (NR   MAcro)

               *****************************************************
               *                     SUCCESS                       *
               *           SCF CONVERGED AFTER  52 CYCLES          *
               *****************************************************

Old exchange energy                            =    -17.174210042 Eh
New exchange energy                            =    -17.174217035 Eh
Exchange energy change after final integration =     -0.000006993 Eh
Total energy after final integration           =   -736.235213756 Eh
Final COS-X integration done in                =     4.796 sec

----------------
TOTAL SCF ENERGY
----------------

Total Energy       :         -736.23521376 Eh          -20033.97867 eV

Components:
Nuclear Repulsion  :          711.98232247 Eh           19374.02395 eV
Electronic Energy  :        -1448.21753623 Eh          -39408.00262 eV
One Electron Energy:        -2436.44505965 Eh          -66299.04065 eV
Two Electron Energy:          988.22752342 Eh           26891.03803 eV
Max COSX asymmetry :            0.00001735 Eh               0.00047 eV

Virial components:
Potential Energy   :        -1429.96003706 Eh          -38911.19082 eV
Kinetic Energy     :          693.72482331 Eh           18877.21214 eV
Virial Ratio       :            2.06127846


DFT components:
N(Alpha)           :       49.000233189131 electrons
N(Beta)            :       48.000202312562 electrons
N(Total)           :       97.000435501693 electrons
E(X)               :      -68.731223550486 Eh       
E(C)               :       -3.976151096947 Eh       
E(XC)              :      -72.707374647433 Eh       
DFET-embed. en.    :        0.000000000000 Eh       

---------------
SCF CONVERGENCE
---------------

  Last Energy change         ...    1.5007e-11  Tolerance :   1.0000e-08
  Last Orbital Gradient      ...    4.4695e-07  Tolerance :   1.0000e-05
  Last Orbital Rotation      ...    4.8404e-06

             **** THE GBW FILE WAS UPDATED (TaCO6.gbw) ****
             **** DENSITY TaCO6.scfp WAS UPDATED ****
             **** ENERGY FILE WAS UPDATED (TaCO6.en.tmp) ****
----------------------
UHF SPIN CONTAMINATION
----------------------

Warning: in a DFT calculation there is little theoretical justification to 
         calculate <S**2> as in Hartree-Fock theory. We will do it anyways
         but you should keep in mind that the values have only limited relevance

Expectation value of <S**2>     :     0.752231
Ideal value S*(S+1) for S=0.5   :     0.750000
Deviation                       :     0.002231

             **** THE GBW FILE WAS UPDATED (TaCO6.gbw) ****
             **** DENSITY TaCO6.scfp WAS UPDATED ****
----------------
ORBITAL ENERGIES
----------------
                 SPIN UP ORBITALS
  NO   OCC          E(Eh)            E(eV) 
   0   1.0000     -19.246308      -523.7187 
   1   1.0000     -19.246290      -523.7182 
   2   1.0000     -19.246253      -523.7172 
   3   1.0000     -19.246250      -523.7171 
   4   1.0000     -19.246238      -523.7167 
   5   1.0000     -19.246191      -523.7155 
   6   1.0000     -10.315734      -280.7054 
   7   1.0000     -10.315715      -280.7049 
   8   1.0000     -10.315697      -280.7044 
   9   1.0000     -10.315695      -280.7043 
  10   1.0000     -10.315665      -280.7035 
  11   1.0000     -10.315495      -280.6989 
  12   1.0000      -2.709681       -73.7342 
  13   1.0000      -1.468979       -39.9730 
  14   1.0000      -1.453614       -39.5549 
  15   1.0000      -1.453566       -39.5535 
  16   1.0000      -1.159137       -31.5417 
  17   1.0000      -1.158782       -31.5321 
  18   1.0000      -1.158768       -31.5317 
  19   1.0000      -1.158742       -31.5310 
  20   1.0000      -1.158683       -31.5294 
  21   1.0000      -1.158628       -31.5279 
  22   1.0000      -0.597456       -16.2576 
  23   1.0000      -0.577873       -15.7247 
  24   1.0000      -0.577846       -15.7240 
  25   1.0000      -0.575586       -15.6625 
  26   1.0000      -0.575391       -15.6572 
  27   1.0000      -0.575361       -15.6564 
  28   1.0000      -0.510519       -13.8919 
  29   1.0000      -0.495992       -13.4966 
  30   1.0000      -0.493548       -13.4301 
  31   1.0000      -0.493532       -13.4297 
  32   1.0000      -0.491619       -13.3776 
  33   1.0000      -0.489317       -13.3150 
  34   1.0000      -0.489291       -13.3143 
  35   1.0000      -0.485864       -13.2210 
  36   1.0000      -0.485843       -13.2205 
  37   1.0000      -0.483944       -13.1688 
  38   1.0000      -0.482805       -13.1378 
  39   1.0000      -0.482788       -13.1373 
  40   1.0000      -0.480526       -13.0758 
  41   1.0000      -0.466084       -12.6828 
  42   1.0000      -0.466058       -12.6821 
  43   1.0000      -0.426345       -11.6014 
  44   1.0000      -0.425228       -11.5710 
  45   1.0000      -0.425147       -11.5688 
  46   1.0000      -0.229706        -6.2506 
  47   1.0000      -0.218418        -5.9435 
  48   1.0000      -0.218362        -5.9419 
  49   0.0000      -0.079868        -2.1733 
  50   0.0000      -0.076353        -2.0777 
  51   0.0000      -0.076315        -2.0766 
  52   0.0000      -0.054263        -1.4766 
  53   0.0000      -0.054182        -1.4744 
  54   0.0000      -0.051127        -1.3912 
  55   0.0000      -0.015438        -0.4201 
  56   0.0000      -0.015414        -0.4194 
  57   0.0000      -0.012620        -0.3434 
  58   0.0000       0.002287         0.0622 
  59   0.0000       0.034084         0.9275 
  60   0.0000       0.041907         1.1404 
  61   0.0000       0.043428         1.1817 
  62   0.0000       0.043461         1.1826 
  63   0.0000       0.043798         1.1918 
  64   0.0000       0.043840         1.1930 
  65   0.0000       0.046252         1.2586 
  66   0.0000       0.046288         1.2596 
  67   0.0000       0.073661         2.0044 
  68   0.0000       0.074931         2.0390 
  69   0.0000       0.074959         2.0397 
  70   0.0000       0.092056         2.5050 
  71   0.0000       0.092476         2.5164 
  72   0.0000       0.092494         2.5169 
  73   0.0000       0.094190         2.5630 
  74   0.0000       0.094206         2.5635 
  75   0.0000       0.108544         2.9536 
  76   0.0000       0.114669         3.1203 
  77   0.0000       0.114728         3.1219 
  78   0.0000       0.115489         3.1426 
  79   0.0000       0.142894         3.8883 
  80   0.0000       0.154932         4.2159 
  81   0.0000       0.154948         4.2163 
  82   0.0000       0.155510         4.2317 
  83   0.0000       0.165801         4.5117 
  84   0.0000       0.165826         4.5123 
  85   0.0000       0.172479         4.6934 
  86   0.0000       0.172506         4.6941 
  87   0.0000       0.172635         4.6976 
  88   0.0000       0.189047         5.1442 
  89   0.0000       0.238918         6.5013 
  90   0.0000       0.245305         6.6751 
  91   0.0000       0.247902         6.7458 
  92   0.0000       0.247954         6.7472 
  93   0.0000       0.268570         7.3082 
  94   0.0000       0.268579         7.3084 
  95   0.0000       0.270257         7.3541 
  96   0.0000       0.270724         7.3668 
  97   0.0000       0.270753         7.3676 
  98   0.0000       0.284450         7.7403 
  99   0.0000       0.284464         7.7406 
 100   0.0000       0.285527         7.7696 
 101   0.0000       0.293406         7.9840 
 102   0.0000       0.296596         8.0708 
 103   0.0000       0.296858         8.0779 
 104   0.0000       0.336441         9.1550 
 105   0.0000       0.339028         9.2254 
 106   0.0000       0.339138         9.2284 
 107   0.0000       0.339308         9.2330 
 108   0.0000       0.340567         9.2673 
 109   0.0000       0.340589         9.2679 
 110   0.0000       0.367507        10.0004 
 111   0.0000       0.372024        10.1233 
 112   0.0000       0.372058        10.1242 
 113   0.0000       0.375921        10.2293 
 114   0.0000       0.376207        10.2371 
 115   0.0000       0.405672        11.0389 
 116   0.0000       0.451425        12.2839 
 117   0.0000       0.451555        12.2874 
 118   0.0000       0.452189        12.3047 
 119   0.0000       0.454409        12.3651 
 120   0.0000       0.454798        12.3757 
 121   0.0000       0.454974        12.3805 
 122   0.0000       0.457436        12.4475 
 123   0.0000       0.457501        12.4492 
 124   0.0000       0.462007        12.5719 
 125   0.0000       0.462047        12.5730 
 126   0.0000       0.462993        12.5987 
 127   0.0000       0.464072        12.6280 
 128   0.0000       0.464610        12.6427 
 129   0.0000       0.464731        12.6460 
 130   0.0000       0.518823        14.1179 
 131   0.0000       0.520421        14.1614 
 132   0.0000       0.520467        14.1626 
 133   0.0000       0.523796        14.2532 
 134   0.0000       0.536065        14.5871 
 135   0.0000       0.541093        14.7239 
 136   0.0000       0.541137        14.7251 
 137   0.0000       0.542360        14.7584 
 138   0.0000       0.546244        14.8641 
 139   0.0000       0.546312        14.8659 
 140   0.0000       0.550336        14.9754 
 141   0.0000       0.583697        15.8832 
 142   0.0000       0.583905        15.8889 
 143   0.0000       0.585147        15.9227 
 144   0.0000       0.590931        16.0801 
 145   0.0000       0.591391        16.0926 
 146   0.0000       0.591590        16.0980 
 147   0.0000       0.610353        16.6085 
 148   0.0000       0.610372        16.6091 
 149   0.0000       0.626974        17.0608 
 150   0.0000       0.627107        17.0645 
 151   0.0000       0.630403        17.1541 
 152   0.0000       0.630905        17.1678 
 153   0.0000       0.631139        17.1742 
 154   0.0000       0.640290        17.4232 
 155   0.0000       0.640303        17.4235 
 156   0.0000       0.641278        17.4500 
 157   0.0000       0.693224        18.8636 
 158   0.0000       0.703758        19.1502 
 159   0.0000       0.704352        19.1664 
 160   0.0000       0.704595        19.1730 
 161   0.0000       0.716652        19.5011 
 162   0.0000       0.716717        19.5029 
 163   0.0000       0.789328        21.4787 
 164   0.0000       0.789448        21.4820 
 165   0.0000       0.792046        21.5527 
 166   0.0000       0.792100        21.5541 
 167   0.0000       0.867033        23.5932 
 168   0.0000       0.867090        23.5947 
 169   0.0000       0.869325        23.6555 
 170   0.0000       0.871835        23.7238 
 171   0.0000       0.871951        23.7270 
 172   0.0000       0.910707        24.7816 
 173   0.0000       0.911245        24.7962 
 174   0.0000       0.911265        24.7968 
 175   0.0000       0.911292        24.7975 
 176   0.0000       0.914844        24.8942 
 177   0.0000       0.918944        25.0057 
 178   0.0000       0.918967        25.0064 
 179   0.0000       0.925899        25.1950 
 180   0.0000       0.929471        25.2922 
 181   0.0000       0.929685        25.2980 
 182   0.0000       0.949162        25.8280 
 183   0.0000       0.954549        25.9746 
 184   0.0000       0.954580        25.9754 
 185   0.0000       0.958189        26.0736 
 186   0.0000       1.002057        27.2674 
 187   0.0000       1.007441        27.4139 
 188   0.0000       1.007450        27.4141 
 189   0.0000       1.026565        27.9342 
 190   0.0000       1.029258        28.0075 
 191   0.0000       1.029331        28.0095 
 192   0.0000       1.149236        31.2723 
 193   0.0000       1.149334        31.2750 
 194   0.0000       1.155280        31.4368 
 195   0.0000       1.155417        31.4405 
 196   0.0000       1.155843        31.4521 
 197   0.0000       1.157876        31.5074 
 198   0.0000       1.338015        36.4092 
 199   0.0000       1.338051        36.4102 
 200   0.0000       1.344187        36.5772 
 201   0.0000       1.345903        36.6239 
 202   0.0000       1.346177        36.6314 
 203   0.0000       1.495797        40.7027 
 204   0.0000       1.496007        40.7084 
 205   0.0000       1.497387        40.7460 
 206   0.0000       1.499754        40.8104 
 207   0.0000       1.499769        40.8108 
 208   0.0000       1.499827        40.8124 
 209   0.0000       1.507503        41.0213 
 210   0.0000       1.507527        41.0219 
 211   0.0000       1.509335        41.0711 
 212   0.0000       1.525802        41.5192 
 213   0.0000       1.525960        41.5235 
 214   0.0000       1.526172        41.5293 
 215   0.0000       1.539210        41.8840 
 216   0.0000       1.542212        41.9657 
 217   0.0000       1.542497        41.9735 
 218   0.0000       1.552526        42.2464 
 219   0.0000       1.553477        42.2723 
 220   0.0000       1.553783        42.2806 
 221   0.0000       1.740568        47.3633 
 222   0.0000       1.740692        47.3666 
 223   0.0000       1.740811        47.3699 
 224   0.0000       1.745332        47.4929 
 225   0.0000       1.765442        48.0401 
 226   0.0000       1.765469        48.0408 
 227   0.0000       1.778221        48.3878 
 228   0.0000       1.778378        48.3921 
 229   0.0000       1.778655        48.3997 
 230   0.0000       1.830563        49.8122 
 231   0.0000       1.861158        50.6447 
 232   0.0000       1.865975        50.7758 
 233   0.0000       1.866606        50.7929 
 234   0.0000       1.880725        51.1771 
 235   0.0000       1.883729        51.2589 
 236   0.0000       1.883937        51.2645 
 237   0.0000       1.897378        51.6303 
 238   0.0000       1.897399        51.6308 
 239   0.0000       1.899488        51.6877 
 240   0.0000       1.918545        52.2063 
 241   0.0000       1.918788        52.2129 
 242   0.0000       1.921765        52.2939 
 243   0.0000       1.938441        52.7477 
 244   0.0000       1.938474        52.7485 
 245   0.0000       1.983821        53.9825 
 246   0.0000       1.987691        54.0878 
 247   0.0000       1.988152        54.1004 
 248   0.0000       2.012219        54.7553 
 249   0.0000       2.071001        56.3548 
 250   0.0000       2.076019        56.4913 
 251   0.0000       2.076619        56.5077 
 252   0.0000       2.129979        57.9597 
 253   0.0000       2.129992        57.9600 
 254   0.0000       2.290209        62.3198 
 255   0.0000       2.519313        68.5540 
 256   0.0000       2.519338        68.5547 
 257   0.0000       2.740540        74.5739 
 258   0.0000       2.770291        75.3834 
 259   0.0000       2.793311        76.0099 
 260   0.0000       2.793327        76.0103 
 261   0.0000       2.793372        76.0115 
 262   0.0000       2.802398        76.2571 
 263   0.0000       2.802590        76.2623 
 264   0.0000       2.802866        76.2699 
 265   0.0000       2.811420        76.5026 
 266   0.0000       2.811448        76.5034 
 267   0.0000       2.822142        76.7944 
 268   0.0000       2.822175        76.7953 
 269   0.0000       2.861860        77.8752 
 270   0.0000       2.975968        80.9802 
 271   0.0000       2.977031        81.0091 
 272   0.0000       2.977123        81.0116 
 273   0.0000       3.166828        86.1738 
 274   0.0000       3.167403        86.1894 
 275   0.0000       3.167433        86.1902 
 276   0.0000       3.170079        86.2622 
 277   0.0000       3.170099        86.2628 
 278   0.0000       3.170624        86.2771 
 279   0.0000       3.215054        87.4861 
 280   0.0000       3.215088        87.4870 
 281   0.0000       3.217605        87.5555 
 282   0.0000       3.223695        87.7212 
 283   0.0000       3.226297        87.7920 
 284   0.0000       3.226340        87.7932 
 285   0.0000       3.786634       103.0395 
 286   0.0000       3.791043       103.1595 
 287   0.0000       3.791066       103.1602 
 288   0.0000       3.805433       103.5511 
 289   0.0000       3.805453       103.5516 
 290   0.0000       3.805524       103.5536 
 291   0.0000      71.501570      1945.6566 
 292   0.0000     643.513408     17510.8901 

                 SPIN DOWN ORBITALS
  NO   OCC          E(Eh)            E(eV) 
   0   1.0000     -19.245172      -523.6878 
   1   1.0000     -19.245155      -523.6873 
   2   1.0000     -19.245118      -523.6863 
   3   1.0000     -19.245113      -523.6862 
   4   1.0000     -19.245103      -523.6859 
   5   1.0000     -19.245059      -523.6847 
   6   1.0000     -10.315757      -280.7060 
   7   1.0000     -10.315739      -280.7055 
   8   1.0000     -10.315720      -280.7050 
   9   1.0000     -10.315718      -280.7050 
  10   1.0000     -10.315688      -280.7041 
  11   1.0000     -10.315518      -280.6995 
  12   1.0000      -2.700006       -73.4709 
  13   1.0000      -1.446682       -39.3662 
  14   1.0000      -1.444819       -39.3155 
  15   1.0000      -1.444793       -39.3148 
  16   1.0000      -1.157379       -31.4939 
  17   1.0000      -1.157027       -31.4843 
  18   1.0000      -1.157017       -31.4840 
  19   1.0000      -1.156990       -31.4833 
  20   1.0000      -1.156928       -31.4816 
  21   1.0000      -1.156879       -31.4803 
  22   1.0000      -0.593939       -16.1619 
  23   1.0000      -0.575901       -15.6711 
  24   1.0000      -0.575878       -15.6705 
  25   1.0000      -0.573527       -15.6065 
  26   1.0000      -0.573513       -15.6061 
  27   1.0000      -0.573482       -15.6052 
  28   1.0000      -0.506729       -13.7888 
  29   1.0000      -0.491610       -13.3774 
  30   1.0000      -0.491588       -13.3768 
  31   1.0000      -0.489017       -13.3068 
  32   1.0000      -0.487141       -13.2558 
  33   1.0000      -0.487110       -13.2549 
  34   1.0000      -0.485754       -13.2180 
  35   1.0000      -0.483475       -13.1560 
  36   1.0000      -0.481742       -13.1089 
  37   1.0000      -0.481722       -13.1083 
  38   1.0000      -0.480066       -13.0632 
  39   1.0000      -0.478431       -13.0188 
  40   1.0000      -0.478424       -13.0186 
  41   1.0000      -0.463275       -12.6064 
  42   1.0000      -0.463249       -12.6057 
  43   1.0000      -0.422931       -11.5085 
  44   1.0000      -0.422856       -11.5065 
  45   1.0000      -0.422683       -11.5018 
  46   1.0000      -0.212370        -5.7789 
  47   1.0000      -0.212309        -5.7772 
  48   0.0000      -0.161828        -4.4036 
  49   0.0000      -0.074070        -2.0156 
  50   0.0000      -0.074026        -2.0143 
  51   0.0000      -0.068339        -1.8596 
  52   0.0000      -0.050950        -1.3864 
  53   0.0000      -0.046668        -1.2699 
  54   0.0000      -0.046585        -1.2676 
  55   0.0000      -0.013082        -0.3560 
  56   0.0000      -0.010162        -0.2765 
  57   0.0000      -0.010150        -0.2762 
  58   0.0000       0.002792         0.0760 
  59   0.0000       0.042476         1.1558 
  60   0.0000       0.043602         1.1865 
  61   0.0000       0.043635         1.1874 
  62   0.0000       0.046066         1.2535 
  63   0.0000       0.046107         1.2546 
  64   0.0000       0.050434         1.3724 
  65   0.0000       0.050466         1.3732 
  66   0.0000       0.060596         1.6489 
  67   0.0000       0.075231         2.0472 
  68   0.0000       0.075259         2.0479 
  69   0.0000       0.076395         2.0788 
  70   0.0000       0.092274         2.5109 
  71   0.0000       0.092541         2.5182 
  72   0.0000       0.092559         2.5187 
  73   0.0000       0.097653         2.6573 
  74   0.0000       0.097672         2.6578 
  75   0.0000       0.108769         2.9598 
  76   0.0000       0.114851         3.1252 
  77   0.0000       0.114911         3.1269 
  78   0.0000       0.115596         3.1455 
  79   0.0000       0.146094         3.9754 
  80   0.0000       0.155304         4.2260 
  81   0.0000       0.155320         4.2265 
  82   0.0000       0.155567         4.2332 
  83   0.0000       0.166640         4.5345 
  84   0.0000       0.166667         4.5352 
  85   0.0000       0.172539         4.6950 
  86   0.0000       0.172670         4.6986 
  87   0.0000       0.172972         4.7068 
  88   0.0000       0.191383         5.2078 
  89   0.0000       0.245870         6.6905 
  90   0.0000       0.248257         6.7554 
  91   0.0000       0.248722         6.7681 
  92   0.0000       0.248775         6.7695 
  93   0.0000       0.268920         7.3177 
  94   0.0000       0.268929         7.3179 
  95   0.0000       0.270711         7.3664 
  96   0.0000       0.270745         7.3673 
  97   0.0000       0.270819         7.3693 
  98   0.0000       0.284912         7.7529 
  99   0.0000       0.284922         7.7531 
 100   0.0000       0.285897         7.7797 
 101   0.0000       0.297008         8.0820 
 102   0.0000       0.297486         8.0950 
 103   0.0000       0.297736         8.1018 
 104   0.0000       0.337655         9.1880 
 105   0.0000       0.338840         9.2203 
 106   0.0000       0.339088         9.2270 
 107   0.0000       0.340016         9.2523 
 108   0.0000       0.340511         9.2658 
 109   0.0000       0.340537         9.2665 
 110   0.0000       0.372934        10.1481 
 111   0.0000       0.372971        10.1491 
 112   0.0000       0.378703        10.3050 
 113   0.0000       0.378996        10.3130 
 114   0.0000       0.379676        10.3315 
 115   0.0000       0.405555        11.0357 
 116   0.0000       0.451927        12.2976 
 117   0.0000       0.452061        12.3012 
 118   0.0000       0.452283        12.3072 
 119   0.0000       0.455686        12.3999 
 120   0.0000       0.455828        12.4037 
 121   0.0000       0.456009        12.4086 
 122   0.0000       0.458124        12.4662 
 123   0.0000       0.458212        12.4686 
 124   0.0000       0.462267        12.5789 
 125   0.0000       0.462319        12.5803 
 126   0.0000       0.462832        12.5943 
 127   0.0000       0.464762        12.6468 
 128   0.0000       0.464846        12.6491 
 129   0.0000       0.464909        12.6508 
 130   0.0000       0.520921        14.1750 
 131   0.0000       0.520969        14.1763 
 132   0.0000       0.521001        14.1772 
 133   0.0000       0.526112        14.3162 
 134   0.0000       0.542433        14.7604 
 135   0.0000       0.542826        14.7710 
 136   0.0000       0.542868        14.7722 
 137   0.0000       0.543838        14.7986 
 138   0.0000       0.551381        15.0038 
 139   0.0000       0.551423        15.0050 
 140   0.0000       0.553076        15.0500 
 141   0.0000       0.584938        15.9170 
 142   0.0000       0.585152        15.9228 
 143   0.0000       0.585878        15.9425 
 144   0.0000       0.591323        16.0907 
 145   0.0000       0.591628        16.0990 
 146   0.0000       0.591823        16.1043 
 147   0.0000       0.611006        16.6263 
 148   0.0000       0.611029        16.6270 
 149   0.0000       0.628478        17.1018 
 150   0.0000       0.628583        17.1046 
 151   0.0000       0.632803        17.2194 
 152   0.0000       0.633023        17.2254 
 153   0.0000       0.633457        17.2372 
 154   0.0000       0.641003        17.4426 
 155   0.0000       0.641013        17.4428 
 156   0.0000       0.641170        17.4471 
 157   0.0000       0.694542        18.8995 
 158   0.0000       0.704615        19.1736 
 159   0.0000       0.704754        19.1773 
 160   0.0000       0.704925        19.1820 
 161   0.0000       0.717541        19.5253 
 162   0.0000       0.717616        19.5273 
 163   0.0000       0.790821        21.5193 
 164   0.0000       0.793474        21.5915 
 165   0.0000       0.793519        21.5928 
 166   0.0000       0.794429        21.6175 
 167   0.0000       0.869838        23.6695 
 168   0.0000       0.869911        23.6715 
 169   0.0000       0.870271        23.6813 
 170   0.0000       0.872372        23.7384 
 171   0.0000       0.872499        23.7419 
 172   0.0000       0.911132        24.7932 
 173   0.0000       0.911677        24.8080 
 174   0.0000       0.911729        24.8094 
 175   0.0000       0.912662        24.8348 
 176   0.0000       0.919441        25.0193 
 177   0.0000       0.920863        25.0580 
 178   0.0000       0.920895        25.0588 
 179   0.0000       0.931421        25.3453 
 180   0.0000       0.931640        25.3512 
 181   0.0000       0.932855        25.3843 
 182   0.0000       0.957447        26.0535 
 183   0.0000       0.957513        26.0552 
 184   0.0000       0.957822        26.0637 
 185   0.0000       0.967997        26.3406 
 186   0.0000       1.002644        27.2833 
 187   0.0000       1.009501        27.4699 
 188   0.0000       1.009530        27.4707 
 189   0.0000       1.029601        28.0169 
 190   0.0000       1.029679        28.0190 
 191   0.0000       1.029816        28.0227 
 192   0.0000       1.157260        31.4906 
 193   0.0000       1.157682        31.5021 
 194   0.0000       1.161872        31.6161 
 195   0.0000       1.161955        31.6184 
 196   0.0000       1.162228        31.6258 
 197   0.0000       1.164407        31.6851 
 198   0.0000       1.340079        36.4654 
 199   0.0000       1.340100        36.4660 
 200   0.0000       1.347288        36.6616 
 201   0.0000       1.347557        36.6689 
 202   0.0000       1.349217        36.7141 
 203   0.0000       1.497902        40.7600 
 204   0.0000       1.498301        40.7708 
 205   0.0000       1.498496        40.7762 
 206   0.0000       1.500529        40.8315 
 207   0.0000       1.500540        40.8318 
 208   0.0000       1.500590        40.8331 
 209   0.0000       1.509663        41.0800 
 210   0.0000       1.509847        41.0850 
 211   0.0000       1.509864        41.0855 
 212   0.0000       1.526875        41.5484 
 213   0.0000       1.527147        41.5558 
 214   0.0000       1.528459        41.5915 
 215   0.0000       1.543533        42.0017 
 216   0.0000       1.543832        42.0098 
 217   0.0000       1.543952        42.0131 
 218   0.0000       1.554927        42.3117 
 219   0.0000       1.555217        42.3196 
 220   0.0000       1.556079        42.3430 
 221   0.0000       1.741745        47.3953 
 222   0.0000       1.741791        47.3965 
 223   0.0000       1.741884        47.3991 
 224   0.0000       1.746747        47.5314 
 225   0.0000       1.766447        48.0675 
 226   0.0000       1.766470        48.0681 
 227   0.0000       1.779360        48.4189 
 228   0.0000       1.779460        48.4216 
 229   0.0000       1.779590        48.4251 
 230   0.0000       1.831408        49.8351 
 231   0.0000       1.865844        50.7722 
 232   0.0000       1.866845        50.7994 
 233   0.0000       1.867441        50.8156 
 234   0.0000       1.884241        51.2728 
 235   0.0000       1.884430        51.2779 
 236   0.0000       1.884574        51.2819 
 237   0.0000       1.898879        51.6711 
 238   0.0000       1.898891        51.6714 
 239   0.0000       1.899125        51.6778 
 240   0.0000       1.921076        52.2751 
 241   0.0000       1.921307        52.2814 
 242   0.0000       1.922399        52.3111 
 243   0.0000       1.939782        52.7841 
 244   0.0000       1.939831        52.7855 
 245   0.0000       1.989118        54.1267 
 246   0.0000       1.989417        54.1348 
 247   0.0000       1.989732        54.1434 
 248   0.0000       2.013349        54.7860 
 249   0.0000       2.077559        56.5333 
 250   0.0000       2.078553        56.5603 
 251   0.0000       2.079120        56.5757 
 252   0.0000       2.131072        57.9894 
 253   0.0000       2.131091        57.9899 
 254   0.0000       2.296614        62.4940 
 255   0.0000       2.520421        68.5841 
 256   0.0000       2.520443        68.5847 
 257   0.0000       2.743920        74.6658 
 258   0.0000       2.773560        75.4724 
 259   0.0000       2.796553        76.0981 
 260   0.0000       2.796571        76.0986 
 261   0.0000       2.796613        76.0997 
 262   0.0000       2.805605        76.3444 
 263   0.0000       2.805799        76.3497 
 264   0.0000       2.806065        76.3569 
 265   0.0000       2.814635        76.5901 
 266   0.0000       2.814654        76.5906 
 267   0.0000       2.825319        76.8809 
 268   0.0000       2.825345        76.8816 
 269   0.0000       2.864963        77.9596 
 270   0.0000       2.978738        81.0556 
 271   0.0000       2.979437        81.0746 
 272   0.0000       2.979524        81.0770 
 273   0.0000       3.170114        86.2632 
 274   0.0000       3.170128        86.2636 
 275   0.0000       3.170175        86.2648 
 276   0.0000       3.170855        86.2833 
 277   0.0000       3.170885        86.2842 
 278   0.0000       3.170898        86.2845 
 279   0.0000       3.217893        87.5633 
 280   0.0000       3.217919        87.5640 
 281   0.0000       3.218017        87.5667 
 282   0.0000       3.227175        87.8159 
 283   0.0000       3.227224        87.8172 
 284   0.0000       3.227310        87.8196 
 285   0.0000       3.787874       103.0733 
 286   0.0000       3.792265       103.1928 
 287   0.0000       3.792285       103.1933 
 288   0.0000       3.806721       103.5861 
 289   0.0000       3.806741       103.5867 
 290   0.0000       3.806819       103.5888 
 291   0.0000      71.484460      1945.1910 
 292   0.0000     643.457764     17509.3759 

                    ********************************
                    * MULLIKEN POPULATION ANALYSIS *
                    ********************************

--------------------------------------------
MULLIKEN ATOMIC CHARGES AND SPIN POPULATIONS
--------------------------------------------
   0 Ta:   -0.523547    0.590394
   1 C :    0.262010    0.039185
   2 C :    0.262374    0.038942
   3 C :    0.261982    0.039154
   4 C :    0.262319    0.038949
   5 O :   -0.175248    0.029145
   6 O :   -0.174481    0.029265
   7 O :   -0.174401    0.029232
   8 O :   -0.175090    0.029115
   9 C :    0.262254    0.039081
  10 C :    0.262209    0.039074
  11 O :   -0.175244    0.029248
  12 O :   -0.175136    0.029215
Sum of atomic charges         :   -0.0000000
Sum of atomic spin populations:    1.0000000

-----------------------------------------------------
MULLIKEN REDUCED ORBITAL CHARGES AND SPIN POPULATIONS
-----------------------------------------------------
CHARGE
  0 Tas       :     3.056711  s :     3.056711
      pz      :     2.151358  p :     6.453443
      px      :     2.151040
      py      :     2.151044
      dz2     :     0.674527  d :     3.951877
      dxz     :     0.853762
      dyz     :     0.864928
      dx2y2   :     0.666345
      dxy     :     0.892316
      f0      :     0.018428  f :     0.061515
      f+1     :     0.008144
      f-1     :     0.008192
      f+2     :     0.002200
      f-2     :     0.000054
      f+3     :     0.012301
      f-3     :     0.012197
  1 C s       :     3.484324  s :     3.484324
      pz      :     0.601062  p :     2.173019
      px      :     0.965673
      py      :     0.606284
      dz2     :     0.000557  d :     0.080647
      dxz     :     0.034225
      dyz     :     0.002134
      dx2y2   :     0.007685
      dxy     :     0.036048
  2 C s       :     3.483905  s :     3.483905
      pz      :     0.604323  p :     2.173281
      px      :     0.604309
      py      :     0.964649
      dz2     :     0.000874  d :     0.080440
      dxz     :     0.002494
      dyz     :     0.034298
      dx2y2   :     0.007732
      dxy     :     0.035042
  3 C s       :     3.484342  s :     3.484342
      pz      :     0.601048  p :     2.173019
      px      :     0.965726
      py      :     0.606246
      dz2     :     0.000554  d :     0.080658
      dxz     :     0.034231
      dyz     :     0.002131
      dx2y2   :     0.007684
      dxy     :     0.036057
  4 C s       :     3.483933  s :     3.483933
      pz      :     0.604264  p :     2.173290
      px      :     0.604268
      py      :     0.964759
      dz2     :     0.000874  d :     0.080457
      dxz     :     0.002496
      dyz     :     0.034316
      dx2y2   :     0.007723
      dxy     :     0.035049
  5 O s       :     3.778335  s :     3.778335
      pz      :     1.515625  p :     4.330467
      px      :     1.517451
      py      :     1.297391
      dz2     :     0.004986  d :     0.066446
      dxz     :     0.000160
      dyz     :     0.023432
      dx2y2   :     0.014437
      dxy     :     0.023431
  6 O s       :     3.777619  s :     3.777619
      pz      :     1.514612  p :     4.330406
      px      :     1.296729
      py      :     1.519066
      dz2     :     0.004875  d :     0.066456
      dxz     :     0.023531
      dyz     :     0.000082
      dx2y2   :     0.014467
      dxy     :     0.023501
  7 O s       :     3.777595  s :     3.777595
      pz      :     1.514582  p :     4.330343
      px      :     1.296748
      py      :     1.519013
      dz2     :     0.004878  d :     0.066463
      dxz     :     0.023533
      dyz     :     0.000082
      dx2y2   :     0.014470
      dxy     :     0.023500
  8 O s       :     3.778300  s :     3.778300
      pz      :     1.515531  p :     4.330331
      px      :     1.517373
      py      :     1.297427
      dz2     :     0.004987  d :     0.066459
      dxz     :     0.000161
      dyz     :     0.023430
      dx2y2   :     0.014448
      dxy     :     0.023433
  9 C s       :     3.483997  s :     3.483997
      pz      :     0.964531  p :     2.173325
      px      :     0.603667
      py      :     0.605127
      dz2     :     0.011213  d :     0.080424
      dxz     :     0.035463
      dyz     :     0.035204
      dx2y2   :    -0.003277
      dxy     :     0.001821
 10 C s       :     3.484028  s :     3.484028
      pz      :     0.964590  p :     2.173325
      px      :     0.603640
      py      :     0.605096
      dz2     :     0.011216  d :     0.080438
      dxz     :     0.035474
      dyz     :     0.035200
      dx2y2   :    -0.003275
      dxy     :     0.001822
 11 O s       :     3.778408  s :     3.778408
      pz      :     1.297543  p :     4.330395
      px      :     1.516750
      py      :     1.516101
      dz2     :     0.019340  d :     0.066441
      dxz     :     0.023420
      dyz     :     0.023343
      dx2y2   :     0.000179
      dxy     :     0.000159
 12 O s       :     3.778376  s :     3.778376
      pz      :     1.297576  p :     4.330312
      px      :     1.516709
      py      :     1.516026
      dz2     :     0.019347  d :     0.066449
      dxz     :     0.023420
      dyz     :     0.023342
      dx2y2   :     0.000180
      dxy     :     0.000160

SPIN
  0 Tas       :    -0.018977  s :    -0.018977
      pz      :     0.004392  p :     0.008371
      px      :     0.002469
      py      :     0.001510
      dz2     :     0.022646  d :     0.601859
      dxz     :     0.207189
      dyz     :     0.188357
      dx2y2   :     0.022763
      dxy     :     0.160904
      f0      :    -0.000283  f :    -0.000859
      f+1     :    -0.000143
      f-1     :    -0.000130
      f+2     :     0.000015
      f-2     :     0.000006
      f+3     :    -0.000150
      f-3     :    -0.000173
  1 C s       :     0.005928  s :     0.005928
      pz      :     0.014737  p :     0.021093
      px      :    -0.003739
      py      :     0.010096
      dz2     :    -0.000311  d :     0.012164
      dxz     :     0.006814
      dyz     :     0.000445
      dx2y2   :    -0.000014
      dxy     :     0.005229
  2 C s       :     0.005904  s :     0.005904
      pz      :     0.013014  p :     0.020923
      px      :     0.011758
      py      :    -0.003849
      dz2     :    -0.000223  d :     0.012116
      dxz     :     0.000297
      dyz     :     0.006039
      dx2y2   :     0.000017
      dxy     :     0.005985
  3 C s       :     0.005925  s :     0.005925
      pz      :     0.014718  p :     0.021072
      px      :    -0.003738
      py      :     0.010092
      dz2     :    -0.000311  d :     0.012157
      dxz     :     0.006806
      dyz     :     0.000446
      dx2y2   :    -0.000014
      dxy     :     0.005230
  4 C s       :     0.005912  s :     0.005912
      pz      :     0.013016  p :     0.020920
      px      :     0.011756
      py      :    -0.003851
      dz2     :    -0.000222  d :     0.012116
      dxz     :     0.000297
      dyz     :     0.006041
      dx2y2   :     0.000018
      dxy     :     0.005982
  5 O s       :    -0.005264  s :    -0.005264
      pz      :     0.018613  p :     0.035124
      px      :     0.017549
      py      :    -0.001037
      dz2     :     0.000027  d :    -0.000715
      dxz     :     0.000008
      dyz     :    -0.000406
      dx2y2   :     0.000040
      dxy     :    -0.000384
  6 O s       :    -0.005272  s :    -0.005272
      pz      :     0.020342  p :     0.035255
      px      :    -0.001063
      py      :     0.015976
      dz2     :     0.000039  d :    -0.000718
      dxz     :    -0.000426
      dyz     :     0.000008
      dx2y2   :     0.000022
      dxy     :    -0.000362
[...]
     20       0.039888  -0.020548  -0.028262  -0.024341  -0.121642  -0.006728
     21      -0.229310  -0.235083   0.380728   0.103433  -0.027539   0.289492
     22      -0.008995  -0.006285   0.012536  -0.020507  -0.139723   0.004369
     23       0.040002  -0.020591   0.028233   0.024327   0.121638   0.006730
     24      -0.000788  -0.006666  -0.032436  -0.039459   0.127789   0.003985
     25      -0.273421  -0.239730  -0.267590   0.278960   0.077105   0.289867
     26       0.031262  -0.030584  -0.013957   0.071778  -0.118227   0.022364
     27       0.039406   0.047734   0.129926   0.026730   0.250884  -0.072876
     28       0.030717   0.065205  -0.074211   0.158757  -0.237961  -0.086081
     29       0.333500  -0.350560  -0.107352  -0.353698  -0.049577   0.268066
     30       0.039215   0.047861  -0.129923  -0.026730  -0.250869   0.072827
     31       0.030599   0.065402   0.074259  -0.158756   0.237942   0.086065
     32       0.333658  -0.350494   0.107242   0.353587   0.049600  -0.268051
     33      -0.049277   0.007820  -0.060463   0.023407  -0.118378   0.002244
     34      -0.067279   0.023602   0.060516  -0.018982   0.121805  -0.012040
     35       0.314737  -0.357287  -0.104828  -0.377250  -0.032225   0.298016
     36      -0.049190   0.007734   0.060486  -0.023376   0.118386  -0.002244
     37      -0.067254   0.023501  -0.060526   0.019007  -0.121810   0.012039
     38       0.314936  -0.357266   0.104702   0.377143   0.032228  -0.297990
                 24         25         26         27         28         29    
      0      -0.000006   0.000006  -0.000002  -0.020302   0.000017   0.040177
      1       0.000002  -0.000002  -0.000007   0.009933  -0.018743   0.038014
      2       0.000005  -0.000001   0.000001   0.011301   0.016804   0.043291
      3      -0.067867  -0.028404  -0.006756  -0.009701  -0.000699  -0.029221
      4      -0.256210   0.061540   0.392021  -0.353806  -0.088605  -0.248198
      5      -0.283598   0.233033  -0.287327  -0.394759   0.083875  -0.279814
      6      -0.269965   0.151261   0.354118   0.100391  -0.363394  -0.266375
      7      -0.058979   0.031237  -0.014584  -0.006849   0.003355  -0.018076
      8      -0.268041  -0.366228  -0.119002   0.254768  -0.285786  -0.277956
      9       0.067928   0.028381   0.006728  -0.009785  -0.000713  -0.029282
     10       0.256083  -0.061411  -0.391921  -0.353984  -0.088566  -0.248240
     11       0.283520  -0.232873   0.287412  -0.394862   0.083741  -0.279832
     12       0.269904  -0.151215  -0.354191   0.100228  -0.363413  -0.266423
     13       0.058946  -0.031246   0.014608  -0.006894   0.003396  -0.018046
     14       0.268002   0.366139   0.118902   0.254912  -0.285829  -0.277973
     15       0.094002  -0.056029  -0.115418  -0.034288   0.138016   0.096009
     16      -0.046554   0.024813  -0.040759  -0.012871   0.026474   0.001122
     17       0.089400   0.122110   0.043290  -0.099652   0.106602   0.099977
     18      -0.039730  -0.050895  -0.015151   0.036031  -0.000190   0.005255
     19       0.088822  -0.014623  -0.131854   0.132653   0.037208   0.089551
     20       0.097492  -0.072905   0.099285   0.148292  -0.035040   0.100853
     21       0.039743   0.050876   0.015162   0.036049  -0.000188   0.005256
     22      -0.088782   0.014568   0.131819   0.132712   0.037199   0.089571
     23      -0.097473   0.072845  -0.099325   0.148330  -0.034997   0.100862
     24      -0.093982   0.056013   0.115460  -0.034234   0.138033   0.096029
     25       0.046561  -0.024816   0.040767  -0.012886   0.026470   0.001118
     26      -0.089391  -0.122087  -0.043252  -0.099704   0.106626   0.099987
     27       0.266254  -0.284123   0.260354   0.110073   0.363265  -0.272829
     28       0.254655   0.385676   0.052108   0.258195   0.272104  -0.271724
     29       0.094128   0.017388  -0.014355   0.024396   0.033797  -0.054453
     30      -0.266161   0.283997  -0.260251   0.110178   0.363461  -0.272865
     31      -0.254549  -0.385752  -0.052089   0.258124   0.272128  -0.271752
     32      -0.094096  -0.017417   0.014379   0.024407   0.033773  -0.054427
     33      -0.093710   0.098885  -0.081083  -0.037616  -0.137336   0.098308
     34      -0.092843  -0.128623  -0.007757  -0.098952  -0.097995   0.098251
     35       0.035969  -0.018447  -0.047981  -0.025792  -0.040331   0.013966
     36       0.093680  -0.098845   0.081052  -0.037657  -0.137409   0.098324
     37       0.092809   0.128667   0.007754  -0.098937  -0.098009   0.098262
     38      -0.035987   0.018462   0.047971  -0.025764  -0.040343   0.013974
                 30         31         32         33         34         35    
      0      -0.000228  -0.057667   0.003481   0.000000   0.000000  -0.000041
      1       0.000306   0.029570   0.051168  -0.000000  -0.000001   0.000358
      2      -0.000094   0.027379  -0.048165   0.000001  -0.000001   0.000232
      3      -0.002317   0.003966  -0.003448  -0.437614  -0.146857  -0.058934
      4      -0.289932  -0.092525  -0.394276   0.021880   0.004214   0.001422
      5       0.258440  -0.068866   0.358111   0.019390   0.009335   0.001979
      6       0.277069   0.363962  -0.141499  -0.001612  -0.022741  -0.023106
      7       0.013354   0.011368  -0.016441   0.091616   0.452851   0.490958
      8      -0.269987  -0.268251   0.270753  -0.002965  -0.000314  -0.001252
      9      -0.002350   0.003950  -0.003480   0.438729   0.147327  -0.058594
     10      -0.289968  -0.092539  -0.394301  -0.021986  -0.004250   0.001426
     11       0.258470  -0.068879   0.358126  -0.019463  -0.009358   0.001954
     12       0.277076   0.363975  -0.141519   0.001618   0.022810  -0.022978
     13       0.013348   0.011358  -0.016452  -0.091908  -0.454865   0.489031
     14      -0.270027  -0.268272   0.270770   0.002958   0.000301  -0.001232
     15      -0.095401  -0.118853   0.049779   0.003050   0.015413   0.016821
     16      -0.004080  -0.009530  -0.004835  -0.068023  -0.336637  -0.369597
     17       0.093002   0.090513  -0.087317  -0.000020  -0.000508  -0.000034
     18       0.000100   0.010146  -0.000427   0.325476   0.109181   0.045234
     19       0.099874   0.027447   0.130869  -0.014529  -0.004814  -0.001338
     20      -0.089022   0.019372  -0.118468  -0.013850  -0.004729  -0.001548
     21       0.000101   0.010151  -0.000411  -0.326314  -0.109539   0.044981
     22       0.099887   0.027450   0.130880   0.014607   0.004841  -0.001333
     23      -0.089034   0.019377  -0.118475   0.013903   0.004746  -0.001539
     24      -0.095408  -0.118863   0.049787  -0.003055  -0.015462   0.016734
     25      -0.004082  -0.009528  -0.004841   0.068246   0.338153  -0.368163
     26       0.093020   0.090522  -0.087328   0.000026   0.000522  -0.000048
     27      -0.269748   0.374198   0.102594   0.020757  -0.022140  -0.017277
     28       0.270748  -0.300709  -0.246183   0.042016  -0.033197  -0.032976
     29       0.013613  -0.015724  -0.011107  -0.343494   0.303016   0.272352
     30      -0.269785   0.374233   0.102602  -0.020843   0.022211  -0.017145
     31       0.270789  -0.300724  -0.246196  -0.042199   0.033366  -0.032794
     32       0.013633  -0.015746  -0.011112   0.345112  -0.304446   0.270740
     33       0.092851  -0.122325  -0.037235  -0.015994   0.014166   0.012724
     34      -0.093145   0.101552   0.077781  -0.029030   0.025504   0.024024
     35      -0.005002   0.000190   0.014382   0.255509  -0.225213  -0.204728
     36       0.092868  -0.122341  -0.037238   0.016055  -0.014218   0.012635
     37      -0.093165   0.101560   0.077789   0.029166  -0.025628   0.023887
     38      -0.005005   0.000196   0.014387  -0.256727   0.226289  -0.203531
                 36         37         38    
      0      -0.000204  -0.000370  -0.000000
      1       0.000164  -0.000136   0.000000
      2      -0.000316   0.000107  -0.000000
      3      -0.271458  -0.490968  -0.332754
      4       0.011713   0.023411   0.014492
      5       0.013574   0.021520   0.013650
      6      -0.009665   0.010039   0.014859
      7       0.215516  -0.177971  -0.332605
      8       0.000983  -0.000614  -0.000998
      9      -0.269946  -0.490724   0.332711
     10       0.011671   0.023463  -0.014531
     11       0.013519   0.021528  -0.013662
     12      -0.009654   0.010045  -0.014836
     13       0.215354  -0.178324   0.332533
     14       0.001003  -0.000620   0.001013
     15       0.007141  -0.006912  -0.010626
     16      -0.163158   0.133784   0.235393
     17      -0.000836   0.000527   0.000502
     18       0.204269   0.369956   0.235522
     19      -0.008705  -0.016835  -0.010359
     20      -0.009426  -0.015543  -0.009871
     21       0.203146   0.369772  -0.235490
     22      -0.008681  -0.016874   0.010387
     23      -0.009387  -0.015550   0.009880
     24       0.007126  -0.006916   0.010610
     25      -0.163036   0.134045  -0.235338
     26      -0.000844   0.000533  -0.000513
     27       0.029558  -0.012257  -0.020425
     28       0.050500  -0.024054  -0.037064
     29      -0.442671   0.210607   0.330821
     30       0.029456  -0.012244   0.020400
     31       0.050348  -0.024059   0.037053
     32      -0.441457   0.210652  -0.330746
     33      -0.021401   0.009299   0.014542
     34      -0.037555   0.017916   0.026406
     35       0.333443  -0.159397  -0.234068
     36      -0.021323   0.009290  -0.014524
     37      -0.037449   0.017918  -0.026398
     38       0.332538  -0.159428   0.234012


-----------
IR SPECTRUM
-----------

 Mode   freq       eps      Int      T**2         TX        TY        TZ
       cm**-1   L/(mol*cm) km/mol    a.u.
----------------------------------------------------------------------------
  6:     41.00   0.000052    0.26  0.000398  (-0.014113 -0.002063  0.013961)
  7:     41.21   0.000051    0.26  0.000384  ( 0.008255 -0.016497  0.006576)
  8:     59.20   0.000000    0.00  0.000001  (-0.001010 -0.000217 -0.000556)
  9:     59.81   0.000197    0.99  0.001026  (-0.018094 -0.017605 -0.019707)
 10:     69.95   0.000000    0.00  0.000000  ( 0.000057 -0.000074  0.000020)
 11:     70.24   0.000000    0.00  0.000000  (-0.000081 -0.000015  0.000098)
 12:     70.56   0.000000    0.00  0.000000  (-0.000049 -0.000034  0.000073)
 13:     71.11   0.000287    1.45  0.001257  (-0.028635  0.018208  0.010296)
 14:     71.43   0.000282    1.43  0.001233  (-0.005397 -0.023231  0.025766)
 15:    323.49   0.000000    0.00  0.000000  (-0.000058  0.000036  0.000015)
 16:    324.07   0.000000    0.00  0.000000  ( 0.000017 -0.000006  0.000016)
 17:    326.12   0.011177   56.48  0.010695  (-0.076674  0.069083  0.006598)
 18:    326.87   0.011122   56.20  0.010618  (-0.048237 -0.060623  0.067940)
 19:    328.89   0.007934   40.09  0.007528  (-0.038216 -0.036288 -0.068926)
 20:    335.82   0.000000    0.00  0.000000  ( 0.000020 -0.000024 -0.000014)
 21:    336.31   0.000000    0.00  0.000000  ( 0.000014  0.000016 -0.000012)
 22:    338.35   0.000000    0.00  0.000000  ( 0.000011 -0.000002  0.000002)
 23:    376.28   0.000000    0.00  0.000000  ( 0.000000 -0.000001  0.000002)
 24:    406.29   0.000000    0.00  0.000000  ( 0.000007 -0.000005 -0.000001)
 25:    423.81   0.000000    0.00  0.000000  (-0.000004  0.000002 -0.000001)
 26:    424.39   0.000000    0.00  0.000000  (-0.000002  0.000006  0.000001)
 27:    439.17   0.000074    0.37  0.000052  ( 0.005418 -0.003060 -0.003681)
 28:    439.60   0.000078    0.40  0.000056  ( 0.000160  0.005333 -0.005202)
 29:    465.71   0.007858   39.71  0.005265  (-0.041445 -0.039396 -0.044672)
 30:    503.06   0.000005    0.02  0.000003  ( 0.001051 -0.001212  0.000602)
 31:    539.47   0.009443   47.72  0.005463  ( 0.060147 -0.031528 -0.029169)
 32:    539.69   0.009089   45.93  0.005255  (-0.002587 -0.052685  0.049728)
 33:   2054.89   0.000001    0.01  0.000000  ( 0.000251 -0.000125  0.000377)
 34:   2055.10   0.000002    0.01  0.000000  ( 0.000146 -0.000454 -0.000356)
 35:   2060.91   0.457272  2310.86  0.069240  (-0.044391  0.221921  0.134241)
 36:   2061.10   0.489372  2473.08  0.074094  (-0.121590  0.129423 -0.206300)
 37:   2061.23   0.494897  2501.01  0.074926  (-0.236907 -0.086437  0.106441)
 38:   2181.06   0.000000    0.00  0.000000  (-0.000010 -0.000021  0.000018)

* The epsilon (eps) is given for a Dirac delta lineshape.
** The dipole moment derivative (T) already includes vibrational overlap.

The first frequency considered to be a vibration is 6
The total number of vibrations considered is 33


--------------------------
THERMOCHEMISTRY AT 298.15K
--------------------------

Temperature         ... 298.15 K
Pressure            ... 1.00 atm
Total Mass          ... 349.01 AMU

Throughout the following assumptions are being made:
  (1) The electronic state is orbitally nondegenerate
      but the spin degeneracy is treated
  (2) There are no thermally accessible electronically excited states
  (3) Hindered rotations indicated by low frequency modes are not
      treated as such but are treated as vibrations and this may
      cause some error
  (4) All equations used are the standard statistical mechanics
      equations for an ideal gas
  (5) All vibrations are strictly harmonic

freq.      41.00  E(vib)   ...       0.54 
freq.      41.21  E(vib)   ...       0.54 
freq.      59.20  E(vib)   ...       0.51 
freq.      59.81  E(vib)   ...       0.51 
freq.      69.95  E(vib)   ...       0.50 
freq.      70.24  E(vib)   ...       0.50 
freq.      70.56  E(vib)   ...       0.50 
freq.      71.11  E(vib)   ...       0.50 
freq.      71.43  E(vib)   ...       0.50 
freq.     323.49  E(vib)   ...       0.25 
freq.     324.07  E(vib)   ...       0.25 
freq.     326.12  E(vib)   ...       0.24 
freq.     326.87  E(vib)   ...       0.24 
freq.     328.89  E(vib)   ...       0.24 
freq.     335.82  E(vib)   ...       0.24 
freq.     336.31  E(vib)   ...       0.24 
freq.     338.35  E(vib)   ...       0.23 
freq.     376.28  E(vib)   ...       0.21 
freq.     406.29  E(vib)   ...       0.19 
freq.     423.81  E(vib)   ...       0.18 
freq.     424.39  E(vib)   ...       0.18 
freq.     439.17  E(vib)   ...       0.17 
freq.     439.60  E(vib)   ...       0.17 
freq.     465.71  E(vib)   ...       0.16 
freq.     503.06  E(vib)   ...       0.14 
freq.     539.47  E(vib)   ...       0.12 
freq.     539.69  E(vib)   ...       0.12 
freq.    2054.89  E(vib)   ...       0.00 
freq.    2055.10  E(vib)   ...       0.00 
freq.    2060.91  E(vib)   ...       0.00 
freq.    2061.10  E(vib)   ...       0.00 
freq.    2061.23  E(vib)   ...       0.00 
freq.    2181.06  E(vib)   ...       0.00 

------------
INNER ENERGY
------------

The inner energy is: U= E(el) + E(ZPE) + E(vib) + E(rot) + E(trans)
    E(el)   - is the total energy from the electronic structure calculation
              = E(kin-el) + E(nuc-el) + E(el-el) + E(nuc-nuc)
    E(ZPE)  - the the zero temperature vibrational energy from the frequency calculation
    E(vib)  - the the finite temperature correction to E(ZPE) due to population
              of excited vibrational states
    E(rot)  - is the rotational thermal energy
    E(trans)- is the translational thermal energy

Summary of contributions to the inner energy U:
Electronic energy                ...   -736.24440646 Eh
Zero point energy                ...      0.04607863 Eh      28.91 kcal/mol
Thermal vibrational correction   ...      0.01299563 Eh       8.15 kcal/mol
Thermal rotational correction    ...      0.00141627 Eh       0.89 kcal/mol
Thermal translational correction ...      0.00141627 Eh       0.89 kcal/mol
-----------------------------------------------------------------------
Total thermal energy                   -736.18249965 Eh


Summary of corrections to the electronic energy:
(perhaps to be used in another calculation)
Total thermal correction                  0.01582818 Eh       9.93 kcal/mol
Non-thermal (ZPE) correction              0.04607863 Eh      28.91 kcal/mol
-----------------------------------------------------------------------
Total correction                          0.06190681 Eh      38.85 kcal/mol


--------
ENTHALPY
--------

The enthalpy is H = U + kB*T
                kB is Boltzmann's constant
Total free energy                 ...   -736.18249965 Eh 
Thermal Enthalpy correction       ...      0.00094421 Eh       0.59 kcal/mol
-----------------------------------------------------------------------
Total Enthalpy                    ...   -736.18155544 Eh


Note: Only C1 symmetry has been detected, increase convergence thresholds 
      if your molecule has a higher symmetry. Symmetry factor of 1.0 is   
      used for the rotational entropy correction. 
 

Note: Rotational entropy computed according to Herzberg 
Infrared and Raman Spectra, Chapter V,1, Van Nostrand Reinhold, 1945 
Point Group:  C1, Symmetry Number:   1  
Rotational constants in cm-1:     0.018911     0.018827     0.016620 

Vibrational entropy computed according to the QRRHO of S. Grimme
Chem.Eur.J. 2012 18 9955


-------
ENTROPY
-------

The entropy contributions are T*S = T*(S(el)+S(vib)+S(rot)+S(trans))
     S(el)   - electronic entropy
     S(vib)  - vibrational entropy
     S(rot)  - rotational entropy
     S(trans)- translational entropy
The entropies will be listed as multiplied by the temperature to get
units of energy

Electronic entropy                ...      0.00065446 Eh      0.41 kcal/mol
Vibrational entropy               ...      0.02354363 Eh     14.77 kcal/mol
Rotational entropy                ...      0.01519365 Eh      9.53 kcal/mol
Translational entropy             ...      0.02064147 Eh     12.95 kcal/mol
-----------------------------------------------------------------------
Final entropy term                ...      0.06003320 Eh     37.67 kcal/mol

In case the symmetry of your molecule has not been determined correctly
or in case you have a reason to use a different symmetry number we print 
out the resulting rotational entropy values for sn=1,12 :
 --------------------------------------------------------
|  sn= 1 | S(rot)=       0.01519365 Eh      9.53 kcal/mol|
|  sn= 2 | S(rot)=       0.01453919 Eh      9.12 kcal/mol|
|  sn= 3 | S(rot)=       0.01415636 Eh      8.88 kcal/mol|
|  sn= 4 | S(rot)=       0.01388473 Eh      8.71 kcal/mol|
|  sn= 5 | S(rot)=       0.01367405 Eh      8.58 kcal/mol|
|  sn= 6 | S(rot)=       0.01350190 Eh      8.47 kcal/mol|
|  sn= 7 | S(rot)=       0.01335636 Eh      8.38 kcal/mol|
|  sn= 8 | S(rot)=       0.01323028 Eh      8.30 kcal/mol|
|  sn= 9 | S(rot)=       0.01311907 Eh      8.23 kcal/mol|
|  sn=10 | S(rot)=       0.01301959 Eh      8.17 kcal/mol|
|  sn=11 | S(rot)=       0.01292960 Eh      8.11 kcal/mol|
|  sn=12 | S(rot)=       0.01284745 Eh      8.06 kcal/mol|
 --------------------------------------------------------


-------------------
GIBBS FREE ENERGY
-------------------

The Gibbs free energy is G = H - T*S

Total enthalpy                    ...   -736.18155544 Eh 
Total entropy correction          ...     -0.06003320 Eh    -37.67 kcal/mol
-----------------------------------------------------------------------
Final Gibbs free energy         ...   -736.24158865 Eh

For completeness - the Gibbs free energy minus the electronic energy
G-E(el)                           ...      0.00281782 Eh      1.77 kcal/mol


Timings for individual modules:

Sum of individual times         ...     1244.059 sec (=  20.734 min)
GTO integral calculation        ...        9.125 sec (=   0.152 min)   0.7 %
SCF iterations                  ...      477.322 sec (=   7.955 min)  38.4 %
SCF Gradient evaluation         ...      129.760 sec (=   2.163 min)  10.4 %
Geometry relaxation             ...        0.440 sec (=   0.007 min)   0.0 %
Analytical frequency calculation...      627.412 sec (=  10.457 min)  50.4 %
                             ****ORCA TERMINATED NORMALLY****
TOTAL RUN TIME: 0 days 0 hours 20 minutes 45 seconds 603 msec
