
                                 *****************
                                 * O   R   C   A *
                                 *****************

                                            #,                                       
                                            ###                                      
                                            ####                                     
                                            #####                                    
                                            ######                                   
                                           ########,                                 
                                     ,,################,,,,,                         
                               ,,#################################,,                 
                          ,,##########################################,,             
                       ,#########################################, ''#####,          
                    ,#############################################,,   '####,        
                  ,##################################################,,,,####,       
                ,###########''''           ''''###############################       
              ,#####''   ,,,,##########,,,,          '''####'''          '####       
            ,##' ,,,,###########################,,,                        '##       
           ' ,,###''''                  '''############,,,                           
         ,,##''                                '''############,,,,        ,,,,,,###''
      ,#''                                            '''#######################'''  
     '                                                          ''''####''''         
             ,#######,   #######,   ,#######,      ##                                
            ,#'     '#,  ##    ##  ,#'     '#,    #''#        ######   ,####,        
            ##       ##  ##   ,#'  ##            #'  '#       #        #'  '#        
            ##       ##  #######   ##           ,######,      #####,   #    #        
            '#,     ,#'  ##    ##  '#,     ,#' ,#      #,         ##   #,  ,#        
             '#######'   ##     ##  '#######'  #'      '#     #####' # '####'        



                  #######################################################
                  #                        -***-                        #
                  #          Department of theory and spectroscopy      #
                  #    Directorship and core code : Frank Neese         #
                  #        Max Planck Institute fuer Kohlenforschung    #
                  #                Kaiser Wilhelm Platz 1               #
                  #                 D-45470 Muelheim/Ruhr               #
                  #                      Germany                        #
                  #                                                     #
                  #                  All rights reserved                #
                  #                        -***-                        #
                  #######################################################



                         Program Version 5.0.4 -  RELEASE  -

 With contributions from (in alphabetic order):
   Daniel Aravena         : Magnetic Suceptibility
   Michael Atanasov       : Ab Initio Ligand Field Theory (pilot matlab implementation)
   Alexander A. Auer      : GIAO ZORA, VPT2 properties, NMR spectrum
   Ute Becker             : Parallelization
   Giovanni Bistoni       : ED, misc. LED, open-shell LED, HFLD
   Martin Brehm           : Molecular dynamics
   Dmytro Bykov           : SCF Hessian
   Vijay G. Chilkuri      : MRCI spin determinant printing, contributions to CSF-ICE
   Dipayan Datta          : RHF DLPNO-CCSD density
   Achintya Kumar Dutta   : EOM-CC, STEOM-CC
   Dmitry Ganyushin       : Spin-Orbit,Spin-Spin,Magnetic field MRCI
   Miquel Garcia          : C-PCM and meta-GGA Hessian, CC/C-PCM, Gaussian charge scheme
   Yang Guo               : DLPNO-NEVPT2, F12-NEVPT2, CIM, IAO-localization
   Andreas Hansen         : Spin unrestricted coupled pair/coupled cluster methods
   Benjamin Helmich-Paris : MC-RPA, TRAH-SCF, COSX integrals
   Lee Huntington         : MR-EOM, pCC
   Robert Izsak           : Overlap fitted RIJCOSX, COSX-SCS-MP3, EOM
   Marcus Kettner         : VPT2
   Christian Kollmar      : KDIIS, OOCD, Brueckner-CCSD(T), CCSD density, CASPT2, CASPT2-K
   Simone Kossmann        : Meta GGA functionals, TD-DFT gradient, OOMP2, MP2 Hessian
   Martin Krupicka        : Initial AUTO-CI
   Lucas Lang             : DCDCAS
   Marvin Lechner         : AUTO-CI (C++ implementation), FIC-MRCC
   Dagmar Lenk            : GEPOL surface, SMD
   Dimitrios Liakos       : Extrapolation schemes; Compound Job, initial MDCI parallelization
   Dimitrios Manganas     : Further ROCIS development; embedding schemes
   Dimitrios Pantazis     : SARC Basis sets
   Anastasios Papadopoulos: AUTO-CI, single reference methods and gradients
   Taras Petrenko         : DFT Hessian,TD-DFT gradient, ASA, ECA, R-Raman, ABS, FL, XAS/XES, NRVS
   Peter Pinski           : DLPNO-MP2, DLPNO-MP2 Gradient
   Christoph Reimann      : Effective Core Potentials
   Marius Retegan         : Local ZFS, SOC
   Christoph Riplinger    : Optimizer, TS searches, QM/MM, DLPNO-CCSD(T), (RO)-DLPNO pert. Triples
   Tobias Risthaus        : Range-separated hybrids, TD-DFT gradient, RPA, STAB
   Michael Roemelt        : Original ROCIS implementation
   Masaaki Saitow         : Open-shell DLPNO-CCSD energy and density
   Barbara Sandhoefer     : DKH picture change effects
   Avijit Sen             : IP-ROCIS
   Kantharuban Sivalingam : CASSCF convergence, NEVPT2, FIC-MRCI
   Bernardo de Souza      : ESD, SOC TD-DFT
   Georgi Stoychev        : AutoAux, RI-MP2 NMR, DLPNO-MP2 response
   Willem Van den Heuvel  : Paramagnetic NMR
   Boris Wezisla          : Elementary symmetry handling
   Frank Wennmohs         : Technical directorship


 We gratefully acknowledge several colleagues who have allowed us to
 interface, adapt or use parts of their codes:
   Stefan Grimme, W. Hujo, H. Kruse, P. Pracht,  : VdW corrections, initial TS optimization,
                  C. Bannwarth, S. Ehlert          DFT functionals, gCP, sTDA/sTD-DF
   Ed Valeev, F. Pavosevic, A. Kumar             : LibInt (2-el integral package), F12 methods
   Garnet Chan, S. Sharma, J. Yang, R. Olivares  : DMRG
   Ulf Ekstrom                                   : XCFun DFT Library
   Mihaly Kallay                                 : mrcc  (arbitrary order and MRCC methods)
   Jiri Pittner, Ondrej Demel                    : Mk-CCSD
   Frank Weinhold                                : gennbo (NPA and NBO analysis)
   Christopher J. Cramer and Donald G. Truhlar   : smd solvation model
   Lars Goerigk                                  : TD-DFT with DH, B97 family of functionals
   V. Asgeirsson, H. Jonsson                     : NEB implementation
   FAccTs GmbH                                   : IRC, NEB, NEB-TS, DLPNO-Multilevel, CI-OPT
                                                   MM, QMMM, 2- and 3-layer-ONIOM, Crystal-QMMM,
                                                   LR-CPCM, SF, NACMEs, symmetry and pop. for TD-DFT,
                                                   nearIR, NL-DFT gradient (VV10), updates on ESD,
                                                   ML-optimized integration grids
   S Lehtola, MJT Oliveira, MAL Marques          : LibXC Library
   Liviu Ungur et al                             : ANISO software


 Your calculation uses the libint2 library for the computation of 2-el integrals
 For citations please refer to: http://libint.valeyev.net

 Your ORCA version has been built with support for libXC version: 5.1.0
 For citations please refer to: https://tddft.org/programs/libxc/

 This ORCA versions uses:
   CBLAS   interface :  Fast vector & matrix operations
   LAPACKE interface :  Fast linear algebra routines
   Shared memory     :  Shared parallel matrices


================================================================================

cite the ECPs for W  [Def2-ECP] as follows:
Ce-Yb(ecp-28): M. Dolg, H. Stoll, H.Preuss, J. Chem. Phys., 1989, 90, 1730-1734.
Y-Cd(ecp-28), Hf-Hg(ecp-46): D. Andrae,U. Haeussermann, M. Dolg, H. Stoll, H. Preuss, Theor. Chim. Acta, 1990, 77, 123-141.
In-Sb(ecp-28), Tl-Bi(ecp-46): B. Metz, H. Stoll, M. Dolg, J. Chem. Phys., 2000, 113, 2563-2569.
Te-Xe(ecp-28), Po-Rn(ecp-46): K. A. Peterson, D. Figgen, E. Goll, H. Stoll, M. Dolg, J. Chem. Phys., 2003, 119, 11113-11123.
Rb(ecp-28), Cs(ecp-46): T. Leininger, A. Nicklass, W. Kuechle, H. Stoll, M. Dolg, A. Bergner, Chem. Phys. Lett., 1996, 255, 274-280.
Sr(ecp-28), Ba(ecp-46): M. Kaupp, P. V. Schleyer, H. Stoll and H. Preuss, J. Chem. Phys., 1991, 94, 1360-1366.
La(ecp-46): M. Dolg, H. Stoll, A. Savin, H. Preuss, Theor. Chim. Acta, 1989, 75, 173-194.
Lu(ecp-28): X. Cao, M. Dolg, J. Chem. Phys., 2001, 115, 7348-7355.

ECP parameters for W  [Def2-ECP] have been obtained from:
TURBOMOLE (7.0.2)

----- Orbital basis set information -----
Your calculation utilizes the basis: def2-SVPD
   F. Weigend and R. Ahlrichs, Phys. Chem. Chem. Phys. 7, 3297 (2005).
   D. Rappoport and F. Furche, J. Chem. Phys. 133 134105 (2010).

----- AuxJ basis set information -----
Your calculation utilizes the auxiliary basis: def2/J
   F. Weigend, Phys. Chem. Chem. Phys. 8, 1057 (2006).

================================================================================
                                        WARNINGS
                       Please study these warnings very carefully!
================================================================================


WARNING: Geometry Optimization
  ===> : Switching off AutoStart
         For restart on a previous wavefunction, please use MOREAD

INFO   : the flag for use of the SHARK integral package has been found!

================================================================================
                                       INPUT FILE
================================================================================
NAME = WCO6.inp
|  1> !B3LYP def2-SVPD OPT FREQ TightSCF PAL8

|  2> 

|  3> %scf

|  4>   MaxIter 300

|  5> end

|  6> 

|  7> * xyz 0 1 

|  8> W         -1.37621        2.56722        0.10711

|  9> C          0.70839        2.53117        0.30993

| 10> C         -1.33834        4.66140        0.07376

| 11> C         -3.46098        2.60316       -0.09572

| 12> C         -1.41502        0.47296        0.14051

| 13> C         -1.57994        2.60535        2.19168

| 14> C         -1.17198        2.52910       -1.97739

| 15> O         -1.68985        2.62619        3.31419

| 16> O         -1.43573       -0.65466        0.15820

| 17> O         -1.31832        5.78914        0.05603

| 18> O         -1.06136        2.50831       -3.09969

| 19> O         -4.58356        2.62277       -0.20455

| 20> O          1.83095        2.51149        0.41866

| 21> **                         ****END OF INPUT****
================================================================================

                       *****************************
                       * Geometry Optimization Run *
                       *****************************

Geometry optimization settings:
Update method            Update   .... BFGS
Choice of coordinates    CoordSys .... Z-matrix Internals
Initial Hessian          InHess   .... Almoef's Model

Convergence Tolerances:
Energy Change            TolE     ....  5.0000e-06 Eh
Max. Gradient            TolMAXG  ....  3.0000e-04 Eh/bohr
RMS Gradient             TolRMSG  ....  1.0000e-04 Eh/bohr
Max. Displacement        TolMAXD  ....  4.0000e-03 bohr
RMS Displacement         TolRMSD  ....  2.0000e-03 bohr
Strict Convergence                ....  False
------------------------------------------------------------------------------
                        ORCA OPTIMIZATION COORDINATE SETUP
------------------------------------------------------------------------------

The optimization will be done in new redundant internal coordinates
Making redundant internal coordinates   ...  (new redundants) done
Evaluating the initial hessian          ...  (Almloef) done
Evaluating the coordinates              ...  done
Calculating the B-matrix                .... done
Calculating the G-matrix                .... done
Diagonalizing the G-matrix              .... done
The first mode is                       ....    3
The number of degrees of freedom        ....   33

    -----------------------------------------------------------------
                    Redundant Internal Coordinates


    -----------------------------------------------------------------
         Definition                    Initial Value    Approx d2E/dq
    -----------------------------------------------------------------
      1. B(C   1,W   0)                  2.0948         0.109219   
      2. B(C   2,W   0)                  2.0948         0.109206   
      3. B(C   3,W   0)                  2.0949         0.109152   
      4. B(C   4,W   0)                  2.0949         0.109166   
      5. B(C   5,W   0)                  2.0948         0.109181   
      6. B(C   6,W   0)                  2.0948         0.109190   
      7. B(O   7,C   5)                  1.1281         1.464762   
      8. B(O   8,C   4)                  1.1279         1.465417   
      9. B(O   9,C   2)                  1.1281         1.464835   
     10. B(O  10,C   6)                  1.1279         1.465518   
     11. B(O  11,C   3)                  1.1280         1.465070   
     12. B(O  12,C   1)                  1.1280         1.465222   
     13. A(C   4,W   0,C   5)           90.0303         0.265702   
     14. A(C   3,W   0,C   5)           89.9571         0.265697   
     15. A(C   2,W   0,C   3)           89.9598         0.265706   
     16. A(C   1,W   0,C   6)           89.9434         0.265725   
     17. A(C   2,W   0,C   6)           90.0337         0.265720   
     18. A(C   3,W   0,C   6)           90.0567         0.265700   
     19. A(C   4,W   0,C   6)           89.9702         0.265705   
     20. A(C   3,W   0,C   4)           90.0148         0.265691   
     21. A(C   1,W   0,C   2)           90.0433         0.265730   
     22. A(C   1,W   0,C   5)           90.0428         0.265721   
     23. A(C   1,W   0,C   4)           89.9821         0.265716   
     24. A(C   2,W   0,C   5)           89.9659         0.265716   
     25. L(W   0,C   1,O  12,C   6, 1) 179.9750         0.386553   
     26. L(W   0,C   1,O  12,C   6, 2) 180.0186         0.386553   
     27. L(W   0,C   2,O   9,C   3, 2) 179.9810         0.386527   
     28. L(W   0,C   2,O   9,C   3, 1) 179.9823         0.386527   
     29. L(W   0,C   3,O  11,C   5, 2) 179.9820         0.386504   
     30. L(W   0,C   3,O  11,C   5, 1) 179.9802         0.386504   
     31. L(W   0,C   4,O   8,C   6, 1) 179.9842         0.386529   
     32. L(W   0,C   4,O   8,C   6, 2) 179.9887         0.386529   
     33. L(W   0,C   5,O   7,C   3, 2) 180.0218         0.386508   
     34. L(W   0,C   5,O   7,C   3, 1) 179.9894         0.386508   
     35. L(W   0,C   6,O  10,C   1, 2) 179.9818         0.386548   
     36. L(W   0,C   6,O  10,C   1, 1) 179.9663         0.386548   
    -----------------------------------------------------------------

Number of atoms                         .... 13
Number of degrees of freedom            .... 36

         *************************************************************
         *                GEOMETRY OPTIMIZATION CYCLE   1            *
         *************************************************************
---------------------------------
CARTESIAN COORDINATES (ANGSTROEM)
---------------------------------
  W     -1.376210    2.567220    0.107110
  C      0.708390    2.531170    0.309930
  C     -1.338340    4.661400    0.073760
  C     -3.460980    2.603160   -0.095720
  C     -1.415020    0.472960    0.140510
  C     -1.579940    2.605350    2.191680
  C     -1.171980    2.529100   -1.977390
  O     -1.689850    2.626190    3.314190
  O     -1.435730   -0.654660    0.158200
  O     -1.318320    5.789140    0.056030
  O     -1.061360    2.508310   -3.099690
  O     -4.583560    2.622770   -0.204550
  O      1.830950    2.511490    0.418660

----------------------------
CARTESIAN COORDINATES (A.U.)
----------------------------
  NO LB      ZA    FRAG     MASS         X           Y           Z
   0 W    14.0000*   0   183.850   -2.600660    4.851343    0.202409
   1 C     6.0000    0    12.011    1.338663    4.783218    0.585683
   2 C     6.0000    0    12.011   -2.529096    8.808769    0.139386
   3 C     6.0000    0    12.011   -6.540304    4.919259   -0.180885
   4 C     6.0000    0    12.011   -2.674000    0.893765    0.265525
   5 C     6.0000    0    12.011   -2.985654    4.923398    4.141675
   6 C     6.0000    0    12.011   -2.214721    4.779306   -3.736726
   7 O     8.0000    0    15.999   -3.193354    4.962780    6.262911
   8 O     8.0000    0    15.999   -2.713137   -1.237128    0.298955
   9 O     8.0000    0    15.999   -2.491264   10.939889    0.105881
  10 O     8.0000    0    15.999   -2.005680    4.740019   -5.857565
  11 O     8.0000    0    15.999   -8.661673    4.956317   -0.386543
  12 O     8.0000    0    15.999    3.459994    4.746028    0.791153
* core charge reduced due to ECP

--------------------------------
INTERNAL COORDINATES (ANGSTROEM)
--------------------------------
 W      0   0   0     0.000000000000     0.00000000     0.00000000
 C      1   0   0     2.094753616753     0.00000000     0.00000000
 C      1   2   0     2.094787872745    90.04329025     0.00000000
 C      1   2   3     2.094921870954   179.99690674   182.29116734
 C      1   2   3     2.094885849802    89.98212640   180.00380390
 C      1   2   3     2.094848895434    90.04279574   270.03411615
 C      1   2   3     2.094827744064    89.94341391    90.03361590
 O      6   1   2     1.128070571285   179.98128769   124.50532445
 O      5   1   2     1.127948892725   179.98232997   296.87930288
 O      3   1   2     1.128057029099   179.97774731   217.10318201
 O      7   1   2     1.127930094687   179.96392626    20.91481758
 O      4   1   2     1.128013465079   179.97643751   120.50657057
 O      2   1   3     1.127985136826   179.97178934   242.17983125

---------------------------
INTERNAL COORDINATES (A.U.)
---------------------------
 W      0   0   0     0.000000000000     0.00000000     0.00000000
 C      1   0   0     3.958510653704     0.00000000     0.00000000
 C      1   2   0     3.958575388148    90.04329025     0.00000000
 C      1   2   3     3.958828608064   179.99690674   182.29116734
 C      1   2   3     3.958760537952    89.98212640   180.00380390
 C      1   2   3     3.958690704317    90.04279574   270.03411615
 C      1   2   3     3.958650734021    89.94341391    90.03361590
 O      6   1   2     2.131744439465   179.98128769   124.50532445
 O      5   1   2     2.131514500310   179.98232997   296.87930288
 O      3   1   2     2.131718848442   179.97774731   217.10318201
 O      7   1   2     2.131478977166   179.96392626    20.91481758
 O      4   1   2     2.131636524375   179.97643751   120.50657057
 O      2   1   3     2.131582991735   179.97178934   242.17983125

---------------------
BASIS SET INFORMATION
---------------------
There are 3 groups of distinct atoms

 Group   1 Type W   : 7s7p5d1f contracted to 6s4p2d1f pattern {211111/4111/41/1}
 Group   2 Type C   : 8s4p2d contracted to 4s2p2d pattern {5111/31/11}
 Group   3 Type O   : 8s5p2d contracted to 4s3p2d pattern {5111/311/11}

Atom   0W    basis set group =>   1
Atom   1C    basis set group =>   2
Atom   2C    basis set group =>   2
Atom   3C    basis set group =>   2
Atom   4C    basis set group =>   2
Atom   5C    basis set group =>   2
Atom   6C    basis set group =>   2
Atom   7O    basis set group =>   3
Atom   8O    basis set group =>   3
Atom   9O    basis set group =>   3
Atom  10O    basis set group =>   3
Atom  11O    basis set group =>   3
Atom  12O    basis set group =>   3
---------------------------------
AUXILIARY/J BASIS SET INFORMATION
---------------------------------
There are 3 groups of distinct atoms

 Group   1 Type W   : 11s5p5d3f3g contracted to 8s5p5d2f3g pattern {41111111/11111/11111/21/111}
 Group   2 Type C   : 12s5p4d2f1g contracted to 6s4p3d1f1g pattern {711111/2111/211/2/1}
 Group   3 Type O   : 12s5p4d2f1g contracted to 6s4p3d1f1g pattern {711111/2111/211/2/1}

Atom   0W    basis set group =>   1
Atom   1C    basis set group =>   2
Atom   2C    basis set group =>   2
Atom   3C    basis set group =>   2
Atom   4C    basis set group =>   2
Atom   5C    basis set group =>   2
Atom   6C    basis set group =>   2
Atom   7O    basis set group =>   3
Atom   8O    basis set group =>   3
Atom   9O    basis set group =>   3
Atom  10O    basis set group =>   3
Atom  11O    basis set group =>   3
Atom  12O    basis set group =>   3
-------------------------
ECP PARAMETER INFORMATION
-------------------------

 Group 1, Type W  ECP Def2-ECP (replacing 60 core electrons, lmax=3)

Atom   0W    ECP group =>   1



           ************************************************************
           *        Program running with 8 parallel MPI-processes     *
           *              working on a common directory               *
           ************************************************************
------------------------------------------------------------------------------
                           ORCA GTO INTEGRAL CALCULATION
                           -- RI-GTO INTEGRALS CHOSEN --
------------------------------------------------------------------------------
------------------------------------------------------------------------------
                   ___                                                        
                  /   \      - P O W E R E D   B Y -                         
                 /     \                                                     
                 |  |  |   _    _      __       _____    __    __             
                 |  |  |  | |  | |    /  \     |  _  \  |  |  /  |          
                  \  \/   | |  | |   /    \    | | | |  |  | /  /          
                 / \  \   | |__| |  /  /\  \   | |_| |  |  |/  /          
                |  |  |   |  __  | /  /__\  \  |    /   |      \           
                |  |  |   | |  | | |   __   |  |    \   |  |\   \          
                \     /   | |  | | |  |  |  |  | |\  \  |  | \   \       
                 \___/    |_|  |_| |__|  |__|  |_| \__\ |__|  \__/        
                                                                              
                      - O R C A' S   B I G   F R I E N D -                    
                                      &                                       
                       - I N T E G R A L  F E E D E R -                       
                                                                              
 v1 FN, 2020, v2 2021                                                         
------------------------------------------------------------------------------


Reading SHARK input file WCO6.SHARKINP.tmp ... ok
----------------------
SHARK INTEGRAL PACKAGE
----------------------

Number of atoms                             ...     13
Number of basis functions                   ...    293
Number of shells                            ...    115
Maximum angular momentum                    ...      3
Integral batch strategy                     ... SHARK/LIBINT Hybrid
RI-J (if used) integral strategy            ... SPLIT-RIJ (Revised 2003 algorithm where possible)
Printlevel                                  ...      1
Contraction scheme used                     ... SEGMENTED contraction
Coulomb Range Separation                    ... NOT USED
Exchange Range Separation                   ... NOT USED
Finite Nucleus Model                        ... NOT USED
Auxiliary Coulomb fitting basis             ... AVAILABLE
   # of basis functions in Aux-J            ...    677
   # of shells in Aux-J                     ...    203
   Maximum angular momentum in Aux-J        ...      4
Auxiliary J/K fitting basis                 ... NOT available
Auxiliary Correlation fitting basis         ... NOT available
Auxiliary 'external' fitting basis          ... NOT available
Integral threshold                          ...     2.500000e-11
Primitive cut-off                           ...     2.500000e-12
Primitive pair pre-selection threshold      ...     2.500000e-12

Calculating pre-screening integrals         ... done (  0.0 sec) Dimension = 115
Organizing shell pair data                  ... done (  0.2 sec)
Shell pair information
Total number of shell pairs                 ...      6670
Shell pairs after pre-screening             ...      6079
Total number of primitive shell pairs       ...     19084
Primitive shell pairs kept                  ...     13363
          la=0 lb=0:   1290 shell pairs
          la=1 lb=0:   1692 shell pairs
          la=1 lb=1:    568 shell pairs
          la=2 lb=0:   1248 shell pairs
          la=2 lb=1:    836 shell pairs
          la=2 lb=2:    330 shell pairs
          la=3 lb=0:     54 shell pairs
          la=3 lb=1:     34 shell pairs
          la=3 lb=2:     26 shell pairs
          la=3 lb=3:      1 shell pairs

Calculating one electron integrals          ... done (  0.0 sec)
Calculating ECP integrals                   ... done (  0.8 sec)
Calculating RI/J V-Matrix + Cholesky decomp.... done (  0.1 sec)
Calculating Nuclear repulsion               ... done (  0.0 sec) ENN=    755.755504036229 Eh

SHARK setup successfully completed in   1.5 seconds

Maximum memory used throughout the entire GTOINT-calculation: 18.0 MB


           ************************************************************
           *        Program running with 8 parallel MPI-processes     *
           *              working on a common directory               *
           ************************************************************
-------------------------------------------------------------------------------
                                 ORCA SCF
-------------------------------------------------------------------------------

------------
SCF SETTINGS
------------
Hamiltonian:
 Density Functional     Method          .... DFT(GTOs)
 Exchange Functional    Exchange        .... B88
   X-Alpha parameter    XAlpha          ....  0.666667
   Becke's b parameter  XBeta           ....  0.004200
 Correlation Functional Correlation     .... LYP
 LDA part of GGA corr.  LDAOpt          .... VWN-5
 Gradients option       PostSCFGGA      .... off
 Hybrid DFT is turned on
   Fraction HF Exchange ScalHFX         ....  0.200000
   Scaling of DF-GGA-X  ScalDFX         ....  0.720000
   Scaling of DF-GGA-C  ScalDFC         ....  0.810000
   Scaling of DF-LDA-C  ScalLDAC        ....  1.000000
   Perturbative correction              ....  0.000000
   Density functional embedding theory  .... OFF
   NL short-range parameter             ....  4.800000
 RI-approximation to the Coulomb term is turned on
   Number of AuxJ basis functions       .... 677
   RIJ-COSX (HFX calculated with COS-X)).... on


General Settings:
 Integral files         IntName         .... WCO6
 Hartree-Fock type      HFTyp           .... RHF
 Total Charge           Charge          ....    0
 Multiplicity           Mult            ....    1
 Number of Electrons    NEL             ....   98
 Basis Dimension        Dim             ....  293
 Nuclear Repulsion      ENuc            ....    755.7555040362 Eh

Convergence Acceleration:
 DIIS                   CNVDIIS         .... on
   Start iteration      DIISMaxIt       ....    12
   Startup error        DIISStart       ....  0.200000
   # of expansion vecs  DIISMaxEq       ....     5
   Bias factor          DIISBfac        ....   1.050
   Max. coefficient     DIISMaxC        ....  10.000
 Trust-Rad. Augm. Hess. CNVTRAH         .... auto
   Auto Start mean grad. ratio tolernc. ....  1.125000
   Auto Start start iteration           ....    20
   Auto Start num. interpolation iter.  ....    10
   Max. Number of Micro iterations      ....    16
   Max. Number of Macro iterations      .... Maxiter - #DIIS iter
   Number of Davidson start vectors     ....     2
   Converg. threshold I  (grad. norm)   ....   1.000e-05
   Converg. threshold II (energy diff.) ....   1.000e-08
   Grad. Scal. Fac. for Micro threshold ....   0.100
   Minimum threshold for Micro iter.    ....   0.010
   NR start threshold (gradient norm)   ....   0.001
   Initial trust radius                 ....   0.400
   Minimum AH scaling param. (alpha)    ....   1.000
   Maximum AH scaling param. (alpha)    .... 1000.000
   Orbital update algorithm             .... Taylor
   White noise on init. David. guess    .... on
   Maximum white noise                  ....   0.010
   Quad. conv. algorithm                .... NR
 SOSCF                  CNVSOSCF        .... off
 Level Shifting         CNVShift        .... on
   Level shift para.    LevelShift      ....    0.2500
   Turn off err/grad.   ShiftErr        ....    0.0010
 Zerner damping         CNVZerner       .... off
 Static damping         CNVDamp         .... on
   Fraction old density DampFac         ....    0.7000
   Max. Damping (<1)    DampMax         ....    0.9800
   Min. Damping (>=0)   DampMin         ....    0.0000
   Turn off err/grad.   DampErr         ....    0.1000
 Fernandez-Rico         CNVRico         .... off

SCF Procedure:
 Maximum # iterations   MaxIter         ....   300
 SCF integral mode      SCFMode         .... Direct
   Integral package                     .... SHARK and LIBINT hybrid scheme
 Reset frequency        DirectResetFreq ....    20
 Integral Threshold     Thresh          ....  2.500e-11 Eh
 Primitive CutOff       TCut            ....  2.500e-12 Eh

Convergence Tolerance:
 Convergence Check Mode ConvCheckMode   .... Total+1el-Energy
 Convergence forced     ConvForced      .... 0
 Energy Change          TolE            ....  1.000e-08 Eh
 1-El. energy change                    ....  1.000e-05 Eh
 DIIS Error             TolErr          ....  5.000e-07


Diagonalization of the overlap matrix:
Smallest eigenvalue                        ... 1.869e-05
Time for diagonalization                   ...    0.019 sec
Threshold for overlap eigenvalues          ... 1.000e-08
Number of eigenvalues below threshold      ... 0
Time for construction of square roots      ...    0.049 sec
Total time needed                          ...    0.069 sec

Time for model grid setup =    0.158 sec

------------------------------
INITIAL GUESS: MODEL POTENTIAL
------------------------------
Loading Hartree-Fock densities                     ... done
  calling C:\orca_5_0_4\orca WCO6_atom74.inp > WCO6_atom74.out in order to generate an atomic fitting density for atom 0 (W  with ECP) on-the-fly... 
    atom 0 (W ), assumed electronic state with S=5: 1s2 2s2 2p6 3s2 3p6 4s2 3d10 4p6 5s2 4d10 5p6 6s2 4f14 5d4           ... done
Calculating cut-offs                               ... done
Initializing the effective Hamiltonian             ... done
Setting up the integral package (SHARK)            ... done
Starting the Coulomb interaction                   ... done (   0.1 sec)
Reading the grid                                   ... done
Mapping shells                                     ... done
Starting the XC term evaluation                    ... done (   0.1 sec)
  promolecular density results
     # of electrons  =    158.004554816
     EX              =   -406.132981936
     EC              =     -6.997099835
     EX+EC           =   -413.130081771
Transforming the Hamiltonian                       ... done (   0.0 sec)
Diagonalizing the Hamiltonian                      ... done (   0.0 sec)
Back transforming the eigenvectors                 ... done (   0.0 sec)
Now organizing SCF variables                       ... done
                      ------------------
                      INITIAL GUESS DONE (   3.1 sec)
                      ------------------
-------------------
DFT GRID GENERATION
-------------------

General Integration Accuracy     IntAcc      ... 4.388
Radial Grid Type                 RadialGrid  ... OptM3 with GC (2021)
Angular Grid (max. ang.)         AngularGrid ... 4 (Lebedev-302)
Angular grid pruning method      GridPruning ... 4 (adaptive)
Weight generation scheme         WeightScheme... Becke
Basis function cutoff            BFCut       ... 1.0000e-11
Integration weight cutoff        WCut        ... 1.0000e-14
Angular grids for H and He will be reduced by one unit
Partially contracted basis set               ... off
Rotationally invariant grid construction     ... off

Total number of grid points                  ...    85991
Total number of batches                      ...     1347
Average number of points per batch           ...       63
Average number of grid points per atom       ...     6615
Time for grid setup =    0.637 sec

--------------------
COSX GRID GENERATION
--------------------

GRIDX 1
-------
General Integration Accuracy     IntAcc      ... 3.816
Radial Grid Type                 RadialGrid  ... OptM3 with GC (2021)
Angular Grid (max. ang.)         AngularGrid ... 1 (Lebedev-50)
Angular grid pruning method      GridPruning ... 4 (adaptive)
Weight generation scheme         WeightScheme... Becke
Basis function cutoff            BFCut       ... 1.0000e-11
Integration weight cutoff        WCut        ... 1.0000e-14
Angular grids for H and He will be reduced by one unit
Partially contracted basis set               ... on
Rotationally invariant grid construction     ... off

Total number of grid points                  ...    10578
Total number of batches                      ...      173
Average number of points per batch           ...       61
Average number of grid points per atom       ...      814
UseSFitting                                  ... on

GRIDX 2
-------
General Integration Accuracy     IntAcc      ... 4.020
Radial Grid Type                 RadialGrid  ... OptM3 with GC (2021)
Angular Grid (max. ang.)         AngularGrid ... 2 (Lebedev-110)
Angular grid pruning method      GridPruning ... 4 (adaptive)
Weight generation scheme         WeightScheme... Becke
Basis function cutoff            BFCut       ... 1.0000e-11
Integration weight cutoff        WCut        ... 1.0000e-14
Angular grids for H and He will be reduced by one unit
Partially contracted basis set               ... on
Rotationally invariant grid construction     ... off

Total number of grid points                  ...    27905
Total number of batches                      ...      442
Average number of points per batch           ...       63
Average number of grid points per atom       ...     2147
UseSFitting                                  ... on

GRIDX 3
-------
General Integration Accuracy     IntAcc      ... 4.338
Radial Grid Type                 RadialGrid  ... OptM3 with GC (2021)
Angular Grid (max. ang.)         AngularGrid ... 3 (Lebedev-194)
Angular grid pruning method      GridPruning ... 4 (adaptive)
Weight generation scheme         WeightScheme... Becke
Basis function cutoff            BFCut       ... 1.0000e-11
Integration weight cutoff        WCut        ... 1.0000e-14
Angular grids for H and He will be reduced by one unit
Partially contracted basis set               ... on
Rotationally invariant grid construction     ... off

Total number of grid points                  ...    59525
Total number of batches                      ...      938
Average number of points per batch           ...       63
Average number of grid points per atom       ...     4579
UseSFitting                                  ... on

Time for X-Grid setup             =    0.873 sec

--------------
SCF ITERATIONS
--------------
ITER       Energy         Delta-E        Max-DP      RMS-DP      [F,P]     Damp
               ***  Starting incremental Fock matrix formation  ***
  0   -744.0446056877   0.000000000000 0.83986403  0.00970226  0.7402911 0.7000
  1   -745.3896051174  -1.344999429649 0.65964915  0.00554036  0.2772715 0.7000
                               ***Turning on DIIS***
  2   -745.7027961605  -0.313191043122 0.38289191  0.00406851  0.1346509 0.7000
  3   -745.8721606906  -0.169364530085 0.57312816  0.00968603  0.0859867 0.0000
  4   -746.3390688026  -0.466908112029 0.08636647  0.00149764  0.0843412 0.0000
  5   -746.3856414638  -0.046572661200 0.04934230  0.00118002  0.0179642 0.0000
  6   -746.3878418907  -0.002200426863 0.02296274  0.00021679  0.0071471 0.0000
  7   -746.3882944661  -0.000452575377 0.01077899  0.00011502  0.0027937 0.0000
  8   -746.3883510868  -0.000056620788 0.00181356  0.00002857  0.0011675 0.0000
  9   -746.3883622985  -0.000011211618 0.00086203  0.00001449  0.0002877 0.0000
               *** Restarting incremental Fock matrix formation ***
                                   *** Resetting DIIS ***
 10   -746.3884511776  -0.000088879110 0.00266799  0.00005842  0.0001045 0.0000
 11   -746.3884511517   0.000000025835 0.00027124  0.00000387  0.0001609 0.0000
 12   -746.3884513522  -0.000000200489 0.00014982  0.00000290  0.0000606 0.0000
 13   -746.3884513538  -0.000000001528 0.00005995  0.00000133  0.0000698 0.0000
 14   -746.3884513760  -0.000000022277 0.00009241  0.00000189  0.0000056 0.0000
 15   -746.3884513639   0.000000012140 0.00006093  0.00000101  0.0000045 0.0000
 16   -746.3884513702  -0.000000006355 0.00005027  0.00000093  0.0000015 0.0000
                            ***DIIS convergence achieved***

               *****************************************************
               *                     SUCCESS                       *
               *           SCF CONVERGED AFTER  17 CYCLES          *
               *****************************************************

Old exchange energy                            =    -17.347094075 Eh
New exchange energy                            =    -17.347088322 Eh
Exchange energy change after final integration =      0.000005753 Eh
Total energy after final integration           =   -746.388445613 Eh
Final COS-X integration done in                =     4.223 sec

----------------
TOTAL SCF ENERGY
----------------

Total Energy       :         -746.38844561 Eh          -20310.26216 eV

Components:
Nuclear Repulsion  :          755.75550404 Eh           20565.15278 eV
Electronic Energy  :        -1502.14394965 Eh          -40875.41494 eV
One Electron Energy:        -2541.63521931 Eh          -69161.41042 eV
Two Electron Energy:         1039.49126966 Eh           28285.99548 eV
Max COSX asymmetry :            0.00003512 Eh               0.00096 eV

Virial components:
Potential Energy   :        -1443.63076281 Eh          -39283.19017 eV
Kinetic Energy     :          697.24231720 Eh           18972.92802 eV
Virial Ratio       :            2.07048644


DFT components:
N(Alpha)           :       49.000122302488 electrons
N(Beta)            :       49.000122302488 electrons
N(Total)           :       98.000244604975 electrons
E(X)               :      -69.443509628793 Eh       
E(C)               :       -4.044689943632 Eh       
E(XC)              :      -73.488199572425 Eh       
DFET-embed. en.    :        0.000000000000 Eh       

---------------
SCF CONVERGENCE
---------------

  Last Energy change         ...    4.3765e-09  Tolerance :   1.0000e-08
  Last MAX-Density change    ...    0.0000e+00  Tolerance :   1.0000e-07
  Last RMS-Density change    ...    0.0000e+00  Tolerance :   5.0000e-09
  Last DIIS Error            ...    3.0583e-07  Tolerance :   5.0000e-07

             **** THE GBW FILE WAS UPDATED (WCO6.gbw) ****
             **** DENSITY WCO6.scfp WAS UPDATED ****
             **** ENERGY FILE WAS UPDATED (WCO6.en.tmp) ****
             **** THE GBW FILE WAS UPDATED (WCO6.gbw) ****
             **** DENSITY WCO6.scfp WAS UPDATED ****
----------------
ORBITAL ENERGIES
----------------

  NO   OCC          E(Eh)            E(eV) 
   0   2.0000     -19.243748      -523.6490 
   1   2.0000     -19.243748      -523.6490 
   2   2.0000     -19.243703      -523.6478 
   3   2.0000     -19.243679      -523.6471 
   4   2.0000     -19.243678      -523.6471 
   5   2.0000     -19.243672      -523.6469 
   6   2.0000     -10.319250      -280.8011 
   7   2.0000     -10.319244      -280.8009 
   8   2.0000     -10.319208      -280.7999 
   9   2.0000     -10.319207      -280.7999 
  10   2.0000     -10.319205      -280.7998 
  11   2.0000     -10.318988      -280.7939 
  12   2.0000      -2.962238       -80.6066 
  13   2.0000      -1.612628       -43.8818 
  14   2.0000      -1.612591       -43.8808 
  15   2.0000      -1.612581       -43.8806 
  16   2.0000      -1.158457       -31.5232 
  17   2.0000      -1.157872       -31.5073 
  18   2.0000      -1.157860       -31.5070 
  19   2.0000      -1.157855       -31.5068 
  20   2.0000      -1.157721       -31.5032 
  21   2.0000      -1.157709       -31.5029 
  22   2.0000      -0.611244       -16.6328 
  23   2.0000      -0.579904       -15.7800 
  24   2.0000      -0.579899       -15.7798 
  25   2.0000      -0.574630       -15.6365 
  26   2.0000      -0.574605       -15.6358 
  27   2.0000      -0.574600       -15.6357 
  28   2.0000      -0.521889       -14.2013 
  29   2.0000      -0.497501       -13.5377 
  30   2.0000      -0.497479       -13.5371 
  31   2.0000      -0.497478       -13.5371 
  32   2.0000      -0.490865       -13.3571 
  33   2.0000      -0.490830       -13.3562 
  34   2.0000      -0.490820       -13.3559 
  35   2.0000      -0.487169       -13.2565 
  36   2.0000      -0.487147       -13.2560 
  37   2.0000      -0.484320       -13.1790 
  38   2.0000      -0.484314       -13.1789 
  39   2.0000      -0.484289       -13.1782 
  40   2.0000      -0.479620       -13.0511 
  41   2.0000      -0.479619       -13.0511 
  42   2.0000      -0.479618       -13.0511 
  43   2.0000      -0.426987       -11.6189 
  44   2.0000      -0.426890       -11.6163 
  45   2.0000      -0.426868       -11.6157 
  46   2.0000      -0.249850        -6.7988 
  47   2.0000      -0.249790        -6.7971 
  48   2.0000      -0.249773        -6.7967 
  49   0.0000      -0.075812        -2.0630 
  50   0.0000      -0.075758        -2.0615 
  51   0.0000      -0.075750        -2.0613 
  52   0.0000      -0.051618        -1.4046 
  53   0.0000      -0.051596        -1.4040 
  54   0.0000      -0.051491        -1.4011 
  55   0.0000      -0.006591        -0.1794 
  56   0.0000      -0.006565        -0.1786 
  57   0.0000      -0.006564        -0.1786 
  58   0.0000       0.002546         0.0693 
  59   0.0000       0.036328         0.9885 
  60   0.0000       0.036356         0.9893 
  61   0.0000       0.036361         0.9894 
  62   0.0000       0.037319         1.0155 
  63   0.0000       0.037342         1.0161 
  64   0.0000       0.037348         1.0163 
  65   0.0000       0.044832         1.2199 
  66   0.0000       0.044847         1.2204 
  67   0.0000       0.076677         2.0865 
  68   0.0000       0.076694         2.0870 
  69   0.0000       0.076720         2.0877 
  70   0.0000       0.095824         2.6075 
  71   0.0000       0.095825         2.6075 
  72   0.0000       0.095838         2.6079 
  73   0.0000       0.095848         2.6082 
  74   0.0000       0.095863         2.6086 
  75   0.0000       0.108701         2.9579 
  76   0.0000       0.116721         3.1761 
  77   0.0000       0.116735         3.1765 
  78   0.0000       0.116796         3.1782 
  79   0.0000       0.145360         3.9555 
  80   0.0000       0.159818         4.3489 
  81   0.0000       0.159846         4.3496 
  82   0.0000       0.159848         4.3497 
  83   0.0000       0.173938         4.7331 
  84   0.0000       0.173979         4.7342 
  85   0.0000       0.179665         4.8889 
  86   0.0000       0.179830         4.8934 
  87   0.0000       0.179860         4.8942 
  88   0.0000       0.192228         5.2308 
  89   0.0000       0.245598         6.6831 
  90   0.0000       0.245628         6.6839 
  91   0.0000       0.245707         6.6860 
  92   0.0000       0.259508         7.0616 
  93   0.0000       0.259617         7.0645 
  94   0.0000       0.259638         7.0651 
  95   0.0000       0.274614         7.4726 
  96   0.0000       0.274627         7.4730 
  97   0.0000       0.290868         7.9149 
  98   0.0000       0.290892         7.9156 
  99   0.0000       0.290898         7.9157 
 100   0.0000       0.299224         8.1423 
 101   0.0000       0.299242         8.1428 
 102   0.0000       0.299460         8.1487 
 103   0.0000       0.301592         8.2067 
 104   0.0000       0.344245         9.3674 
 105   0.0000       0.352127         9.5819 
 106   0.0000       0.352166         9.5829 
 107   0.0000       0.378361        10.2957 
 108   0.0000       0.378393        10.2966 
 109   0.0000       0.388480        10.5711 
 110   0.0000       0.388609        10.5746 
 111   0.0000       0.388629        10.5751 
 112   0.0000       0.417509        11.3610 
 113   0.0000       0.417582        11.3630 
 114   0.0000       0.418035        11.3753 
 115   0.0000       0.422090        11.4856 
 116   0.0000       0.448933        12.2161 
 117   0.0000       0.448985        12.2175 
 118   0.0000       0.449196        12.2232 
 119   0.0000       0.461501        12.5581 
 120   0.0000       0.461666        12.5626 
 121   0.0000       0.461692        12.5633 
 122   0.0000       0.463905        12.6235 
 123   0.0000       0.463908        12.6236 
 124   0.0000       0.463925        12.6240 
 125   0.0000       0.472906        12.8684 
 126   0.0000       0.472936        12.8692 
 127   0.0000       0.489580        13.3222 
 128   0.0000       0.489725        13.3261 
 129   0.0000       0.489807        13.3283 
 130   0.0000       0.533628        14.5207 
 131   0.0000       0.533673        14.5220 
 132   0.0000       0.533806        14.5256 
 133   0.0000       0.542343        14.7579 
 134   0.0000       0.544618        14.8198 
 135   0.0000       0.566191        15.4068 
 136   0.0000       0.566221        15.4077 
 137   0.0000       0.566317        15.4103 
 138   0.0000       0.566440        15.4136 
 139   0.0000       0.566466        15.4143 
 140   0.0000       0.566486        15.4149 
 141   0.0000       0.595345        16.2002 
 142   0.0000       0.595353        16.2004 
 143   0.0000       0.595570        16.2063 
 144   0.0000       0.608075        16.5466 
 145   0.0000       0.608467        16.5572 
 146   0.0000       0.608584        16.5604 
 147   0.0000       0.624066        16.9817 
 148   0.0000       0.624098        16.9826 
 149   0.0000       0.650985        17.7142 
 150   0.0000       0.650998        17.7146 
 151   0.0000       0.651000        17.7146 
 152   0.0000       0.652665        17.7599 
 153   0.0000       0.657587        17.8938 
 154   0.0000       0.657602        17.8943 
 155   0.0000       0.660970        17.9859 
 156   0.0000       0.661044        17.9879 
 157   0.0000       0.661052        17.9881 
 158   0.0000       0.714500        19.4425 
 159   0.0000       0.714742        19.4491 
 160   0.0000       0.714886        19.4530 
 161   0.0000       0.741596        20.1798 
 162   0.0000       0.741712        20.1830 
 163   0.0000       0.767126        20.8746 
 164   0.0000       0.767205        20.8767 
 165   0.0000       0.767487        20.8844 
 166   0.0000       0.787933        21.4408 
 167   0.0000       0.878684        23.9102 
 168   0.0000       0.878879        23.9155 
 169   0.0000       0.916082        24.9278 
 170   0.0000       0.916092        24.9281 
 171   0.0000       0.916114        24.9287 
 172   0.0000       0.931800        25.3556 
 173   0.0000       0.931810        25.3558 
 174   0.0000       0.931863        25.3573 
 175   0.0000       0.934037        25.4164 
 176   0.0000       0.934124        25.4188 
 177   0.0000       0.937903        25.5216 
 178   0.0000       0.956412        26.0253 
 179   0.0000       0.959959        26.1218 
 180   0.0000       0.959975        26.1223 
 181   0.0000       0.959990        26.1227 
 182   0.0000       0.973806        26.4986 
 183   0.0000       0.974123        26.5072 
 184   0.0000       0.974194        26.5092 
 185   0.0000       0.990002        26.9393 
 186   0.0000       1.002391        27.2764 
 187   0.0000       1.002414        27.2771 
 188   0.0000       1.032627        28.0992 
 189   0.0000       1.032652        28.0999 
 190   0.0000       1.032673        28.1005 
 191   0.0000       1.045933        28.4613 
 192   0.0000       1.210210        32.9315 
 193   0.0000       1.210213        32.9316 
 194   0.0000       1.210219        32.9317 
 195   0.0000       1.232224        33.5305 
 196   0.0000       1.232888        33.5486 
 197   0.0000       1.233092        33.5541 
 198   0.0000       1.387680        37.7607 
 199   0.0000       1.387870        37.7659 
 200   0.0000       1.388006        37.7696 
 201   0.0000       1.410656        38.3859 
 202   0.0000       1.410748        38.3884 
 203   0.0000       1.502836        40.8943 
 204   0.0000       1.502864        40.8950 
 205   0.0000       1.505373        40.9633 
 206   0.0000       1.505476        40.9661 
 207   0.0000       1.505851        40.9763 
 208   0.0000       1.506080        40.9825 
 209   0.0000       1.506097        40.9830 
 210   0.0000       1.506181        40.9853 
 211   0.0000       1.506464        40.9930 
 212   0.0000       1.506921        41.0054 
 213   0.0000       1.506921        41.0054 
 214   0.0000       1.506967        41.0067 
 215   0.0000       1.559664        42.4406 
 216   0.0000       1.560120        42.4530 
 217   0.0000       1.560260        42.4568 
 218   0.0000       1.576389        42.8957 
 219   0.0000       1.576585        42.9011 
 220   0.0000       1.576642        42.9026 
 221   0.0000       1.753214        47.7074 
 222   0.0000       1.753251        47.7084 
 223   0.0000       1.753473        47.7144 
 224   0.0000       1.759665        47.8829 
 225   0.0000       1.761683        47.9378 
 226   0.0000       1.761689        47.9380 
 227   0.0000       1.781347        48.4729 
 228   0.0000       1.781564        48.4788 
 229   0.0000       1.781615        48.4802 
 230   0.0000       1.826401        49.6989 
 231   0.0000       1.869160        50.8624 
 232   0.0000       1.869164        50.8625 
 233   0.0000       1.869189        50.8632 
 234   0.0000       1.888725        51.3948 
 235   0.0000       1.888835        51.3978 
 236   0.0000       1.889327        51.4112 
 237   0.0000       1.942261        52.8516 
 238   0.0000       1.942425        52.8561 
 239   0.0000       1.942975        52.8710 
 240   0.0000       1.960879        53.3582 
 241   0.0000       1.961237        53.3680 
 242   0.0000       1.961340        53.3708 
 243   0.0000       2.005156        54.5631 
 244   0.0000       2.005346        54.5682 
 245   0.0000       2.006079        54.5882 
 246   0.0000       2.034659        55.3659 
 247   0.0000       2.034672        55.3663 
 248   0.0000       2.044760        55.6408 
 249   0.0000       2.044883        55.6441 
 250   0.0000       2.045397        55.6581 
 251   0.0000       2.053972        55.8914 
 252   0.0000       2.175714        59.2042 
 253   0.0000       2.175750        59.2052 
 254   0.0000       2.465775        67.0972 
 255   0.0000       2.546126        69.2836 
 256   0.0000       2.546143        69.2841 
 257   0.0000       2.781000        75.6748 
 258   0.0000       2.788014        75.8657 
 259   0.0000       2.789731        75.9124 
 260   0.0000       2.789765        75.9134 
 261   0.0000       2.789878        75.9164 
 262   0.0000       2.811964        76.5174 
 263   0.0000       2.812283        76.5261 
 264   0.0000       2.812383        76.5288 
 265   0.0000       2.818685        76.7003 
 266   0.0000       2.818694        76.7006 
 267   0.0000       2.834516        77.1311 
 268   0.0000       2.834533        77.1316 
 269   0.0000       2.867786        78.0364 
 270   0.0000       3.167535        86.1930 
 271   0.0000       3.167564        86.1938 
 272   0.0000       3.167754        86.1990 
 273   0.0000       3.169064        86.2346 
 274   0.0000       3.169065        86.2347 
 275   0.0000       3.169084        86.2351 
 276   0.0000       3.185582        86.6841 
 277   0.0000       3.185584        86.6842 
 278   0.0000       3.185601        86.6846 
 279   0.0000       3.234150        88.0057 
 280   0.0000       3.234183        88.0066 
 281   0.0000       3.234195        88.0069 
 282   0.0000       3.242762        88.2400 
 283   0.0000       3.242779        88.2405 
 284   0.0000       3.242865        88.2428 
 285   0.0000       3.791264       103.1655 
 286   0.0000       3.797753       103.3421 
 287   0.0000       3.797760       103.3423 
 288   0.0000       3.840446       104.5038 
 289   0.0000       3.840535       104.5063 
 290   0.0000       3.840563       104.5070 
 291   0.0000      69.469218      1890.3535 
 292   0.0000     576.193814     15679.0308 

                    ********************************
                    * MULLIKEN POPULATION ANALYSIS *
                    ********************************

-----------------------
MULLIKEN ATOMIC CHARGES
-----------------------
   0 W :   -2.126310
   1 C :    0.555180
   2 C :    0.556896
   3 C :    0.555102
   4 C :    0.556807
   5 C :    0.555185
   6 C :    0.555139
   7 O :   -0.201451
   8 O :   -0.201119
   9 O :   -0.201270
  10 O :   -0.201352
  11 O :   -0.201394
  12 O :   -0.201413
Sum of atomic charges:   -0.0000000

--------------------------------
MULLIKEN REDUCED ORBITAL CHARGES
--------------------------------
  0 W s       :     2.914982  s :     2.914982
      pz      :     2.413441  p :     7.241283
      px      :     2.413416
      py      :     2.414427
      dz2     :     0.991168  d :     5.912119
      dxz     :     1.303552
      dyz     :     1.315403
      dx2y2   :     0.986465
      dxy     :     1.315532
      f0      :     0.016483  f :     0.057926
      f+1     :     0.008075
      f-1     :     0.007770
      f+2     :     0.002805
      f-2     :     0.000092
      f+3     :     0.011243
      f-3     :     0.011457
  1 C s       :     3.290068  s :     3.290068
      pz      :     0.579609  p :     2.097454
      px      :     0.941626
      py      :     0.576219
      dz2     :     0.001049  d :     0.057298
      dxz     :     0.024480
      dyz     :    -0.005194
      dx2y2   :     0.012212
      dxy     :     0.024750
  2 C s       :     3.288642  s :     3.288642
      pz      :     0.576212  p :     2.096826
      px      :     0.576166
      py      :     0.944449
      dz2     :     0.000650  d :     0.057636
      dxz     :    -0.005424
      dyz     :     0.025048
      dx2y2   :     0.012341
      dxy     :     0.025020
  3 C s       :     3.290253  s :     3.290253
      pz      :     0.579553  p :     2.097376
      px      :     0.941623
      py      :     0.576200
      dz2     :     0.001045  d :     0.057269
      dxz     :     0.024425
      dyz     :    -0.005192
      dx2y2   :     0.012225
      dxy     :     0.024766
  4 C s       :     3.288711  s :     3.288711
      pz      :     0.576175  p :     2.096831
      px      :     0.576142
      py      :     0.944513
      dz2     :     0.000650  d :     0.057652
      dxz     :    -0.005422
      dyz     :     0.025050
      dx2y2   :     0.012347
      dxy     :     0.025026
  5 C s       :     3.290175  s :     3.290175
      pz      :     0.941442  p :     2.097368
      px      :     0.579697
      py      :     0.576229
      dz2     :     0.018306  d :     0.057271
      dxz     :     0.024386
      dyz     :     0.024733
      dx2y2   :    -0.004976
      dxy     :    -0.005179
  6 C s       :     3.290115  s :     3.290115
      pz      :     0.941487  p :     2.097440
      px      :     0.579737
      py      :     0.576217
      dz2     :     0.018319  d :     0.057305
      dxz     :     0.024389
      dyz     :     0.024748
      dx2y2   :    -0.004975
      dxy     :    -0.005176
  7 O s       :     3.789153  s :     3.789153
      pz      :     1.304461  p :     4.345256
      px      :     1.519351
      py      :     1.521444
      dz2     :     0.017753  d :     0.067042
      dxz     :     0.024044
      dyz     :     0.024235
      dx2y2   :     0.000323
      dxy     :     0.000688
  8 O s       :     3.788711  s :     3.788711
      pz      :     1.521416  p :     4.345350
      px      :     1.521388
      py      :     1.302546
      dz2     :     0.004471  d :     0.067058
      dxz     :     0.000449
      dyz     :     0.024466
      dx2y2   :     0.013206
      dxy     :     0.024467
  9 O s       :     3.788774  s :     3.788774
      pz      :     1.521478  p :     4.345448
      px      :     1.521457
      py      :     1.302513
      dz2     :     0.004469  d :     0.067048
      dxz     :     0.000448
      dyz     :     0.024465
      dx2y2   :     0.013199
      dxy     :     0.024468
 10 O s       :     3.789141  s :     3.789141
      pz      :     1.304522  p :     4.345159
      px      :     1.519257
      py      :     1.521380
      dz2     :     0.017764  d :     0.067052
      dxz     :     0.024038
      dyz     :     0.024233
      dx2y2   :     0.000326
      dxy     :     0.000691
 11 O s       :     3.789152  s :     3.789152
      pz      :     1.519350  p :     4.345194
      px      :     1.304429
      py      :     1.521415
      dz2     :     0.004895  d :     0.067048
      dxz     :     0.024056
      dyz     :     0.000682
      dx2y2   :     0.013174
      dxy     :     0.024239
 12 O s       :     3.789152  s :     3.789152
      pz      :     1.519353  p :     4.345214
      px      :     1.304433
      py      :     1.521428
      dz2     :     0.004891  d :     0.067047
      dxz     :     0.024049
      dyz     :     0.000682
      dx2y2   :     0.013179
      dxy     :     0.024245


                     *******************************
                     * LOEWDIN POPULATION ANALYSIS *
                     *******************************

----------------------
LOEWDIN ATOMIC CHARGES
----------------------
   0 W :    0.011005
   1 C :    0.089570
   2 C :    0.089647
   3 C :    0.089655
   4 C :    0.089657
   5 C :    0.089641
   6 C :    0.089587
   7 O :   -0.091516
   8 O :   -0.091415
   9 O :   -0.091511
  10 O :   -0.091403
  11 O :   -0.091463
  12 O :   -0.091455

-------------------------------
LOEWDIN REDUCED ORBITAL CHARGES
-------------------------------
  0 W s       :     2.041145  s :     2.041145
      pz      :     2.287623  p :     6.862965
      px      :     2.287662
      py      :     2.287679
      dz2     :     0.834733  d :     4.911271
      dxz     :     1.075926
      dyz     :     1.085298
      dx2y2   :     0.830066
      dxy     :     1.085248
      f0      :     0.051590  f :     0.173614
      f+1     :     0.023705
      f-1     :     0.022757
      f+2     :     0.006227
      f-2     :     0.000182
      f+3     :     0.034204
      f-3     :     0.034949
  1 C s       :     2.974605  s :     2.974605
      pz      :     0.604409  p :     2.276963
      px      :     1.072454
      py      :     0.600101
      dz2     :     0.069097  d :     0.658862
      dxz     :     0.204708
      dyz     :     0.014016
      dx2y2   :     0.166668
      dxy     :     0.204373
  2 C s       :     2.974597  s :     2.974597
      pz      :     0.600059  p :     2.276861
      px      :     0.600078
      py      :     1.076724
      dz2     :     0.066556  d :     0.658895
      dxz     :     0.012415
      dyz     :     0.206122
      dx2y2   :     0.167680
      dxy     :     0.206123
  3 C s       :     2.974654  s :     2.974654
      pz      :     0.604403  p :     2.276886
      px      :     1.072438
      py      :     0.600046
      dz2     :     0.069096  d :     0.658805
      dxz     :     0.204672
      dyz     :     0.014015
      dx2y2   :     0.166660
      dxy     :     0.204362
  4 C s       :     2.974591  s :     2.974591
      pz      :     0.600050  p :     2.276890
      px      :     0.600077
      py      :     1.076763
      dz2     :     0.066551  d :     0.658862
      dxz     :     0.012417
      dyz     :     0.206107
      dx2y2   :     0.167674
      dxy     :     0.206113
  5 C s       :     2.974653  s :     2.974653
      pz      :     1.072297  p :     2.276878
      px      :     0.604498
      py      :     0.600083
      dz2     :     0.217862  d :     0.658827
      dxz     :     0.204693
      dyz     :     0.204329
      dx2y2   :     0.017892
      dxy     :     0.014052
  6 C s       :     2.974607  s :     2.974607
      pz      :     1.072301  p :     2.276967
      px      :     0.604569
      py      :     0.600097
      dz2     :     0.217847  d :     0.658839
      dxz     :     0.204702
      dyz     :     0.204318
      dx2y2   :     0.017902
      dxy     :     0.014069
  7 O s       :     3.482197  s :     3.482197
      pz      :     1.576216  p :     4.402862
      px      :     1.414056
      py      :     1.412591
      dz2     :     0.116918  d :     0.206457
      dxz     :     0.045343
      dyz     :     0.043277
      dx2y2   :     0.000473
      dxy     :     0.000447
  8 O s       :     3.482130  s :     3.482130
      pz      :     1.412508  p :     4.402835
      px      :     1.412513
      py      :     1.577814
      dz2     :     0.029801  d :     0.206450
      dxz     :     0.000043
      dyz     :     0.043661
      dx2y2   :     0.089266
      dxy     :     0.043679
  9 O s       :     3.482181  s :     3.482181
      pz      :     1.412563  p :     4.402883
      px      :     1.412567
      py      :     1.577752
      dz2     :     0.029800  d :     0.206447
      dxz     :     0.000042
      dyz     :     0.043663
      dx2y2   :     0.089266
      dxy     :     0.043676
 10 O s       :     3.482121  s :     3.482121
      pz      :     1.576272  p :     4.402815
      px      :     1.414013
      py      :     1.412530
      dz2     :     0.116895  d :     0.206467
      dxz     :     0.045368
      dyz     :     0.043274
      dx2y2   :     0.000478
      dxy     :     0.000452
 11 O s       :     3.482172  s :     3.482172
      pz      :     1.413998  p :     4.402834
      px      :     1.576290
      py      :     1.412546
      dz2     :     0.029379  d :     0.206457
      dxz     :     0.045309
      dyz     :     0.000437
      dx2y2   :     0.088058
      dxy     :     0.043274
 12 O s       :     3.482145  s :     3.482145
      pz      :     1.413983  p :     4.402844
      px      :     1.576298
      py      :     1.412563
      dz2     :     0.029381  d :     0.206467
      dxz     :     0.045307
      dyz     :     0.000436
      dx2y2   :     0.088057
      dxy     :     0.043286


                      *****************************
                      * MAYER POPULATION ANALYSIS *
                      *****************************

  NA   - Mulliken gross atomic population
  ZA   - Total nuclear charge
  QA   - Mulliken gross atomic charge
  VA   - Mayer's total valence
  BVA  - Mayer's bonded valence
  FA   - Mayer's free valence

  ATOM       NA         ZA         QA         VA         BVA        FA
  0 W     16.1263    14.0000    -2.1263     7.5495     7.5495    -0.0000
  1 C      5.4448     6.0000     0.5552     3.4500     3.4500     0.0000
  2 C      5.4431     6.0000     0.5569     3.4558     3.4558    -0.0000
  3 C      5.4449     6.0000     0.5551     3.4496     3.4496    -0.0000
  4 C      5.4432     6.0000     0.5568     3.4557     3.4557    -0.0000
  5 C      5.4448     6.0000     0.5552     3.4499     3.4499     0.0000
  6 C      5.4449     6.0000     0.5551     3.4500     3.4500    -0.0000
  7 O      8.2015     8.0000    -0.2015     2.4712     2.4712    -0.0000
  8 O      8.2011     8.0000    -0.2011     2.4733     2.4733    -0.0000
  9 O      8.2013     8.0000    -0.2013     2.4730     2.4730    -0.0000
 10 O      8.2014     8.0000    -0.2014     2.4715     2.4715    -0.0000
 11 O      8.2014     8.0000    -0.2014     2.4712     2.4712    -0.0000
 12 O      8.2014     8.0000    -0.2014     2.4713     2.4713    -0.0000

  Mayer bond orders larger than 0.100000
B(  0-W ,  1-C ) :   1.1793 B(  0-W ,  2-C ) :   1.1819 B(  0-W ,  3-C ) :   1.1791 
B(  0-W ,  4-C ) :   1.1818 B(  0-W ,  5-C ) :   1.1793 B(  0-W ,  6-C ) :   1.1792 
B(  1-C , 12-O ) :   2.2849 B(  2-C ,  9-O ) :   2.2869 B(  3-C , 11-O ) :   2.2849 
B(  4-C ,  8-O ) :   2.2872 B(  5-C ,  7-O ) :   2.2849 B(  6-C , 10-O ) :   2.2851 


-------
TIMINGS
-------

Total SCF time: 0 days 0 hours 0 min 47 sec 

Total time                  ....      47.975 sec
Sum of individual times     ....      47.252 sec  ( 98.5%)

Fock matrix formation       ....      40.964 sec  ( 85.4%)
  Split-RI-J                ....       3.147 sec  (  7.7% of F)
  Chain of spheres X        ....      28.275 sec  ( 69.0% of F)
  XC integration            ....       8.536 sec  ( 20.8% of F)
    Basis function eval.    ....       1.477 sec  ( 17.3% of XC)
    Density eval.           ....       3.718 sec  ( 43.6% of XC)
    XC-Functional eval.     ....       0.217 sec  (  2.5% of XC)
    XC-Potential eval.      ....       1.743 sec  ( 20.4% of XC)
Diagonalization             ....       1.006 sec  (  2.1%)
Density matrix formation    ....       0.029 sec  (  0.1%)
Population analysis         ....       0.081 sec  (  0.2%)
Initial guess               ....       2.981 sec  (  6.2%)
Orbital Transformation      ....       0.000 sec  (  0.0%)
Orbital Orthonormalization  ....       0.000 sec  (  0.0%)
DIIS solution               ....       0.523 sec  (  1.1%)
Grid generation             ....       1.668 sec  (  3.5%)

Maximum memory used throughout the entire SCF-calculation: 76.7 MB

-------------------------   --------------------
FINAL SINGLE POINT ENERGY      -746.388445612534
-------------------------   --------------------



           ************************************************************
           *        Program running with 8 parallel MPI-processes     *
           *              working on a common directory               *
           ************************************************************
------------------------------------------------------------------------------
                         ORCA SCF GRADIENT CALCULATION
------------------------------------------------------------------------------

 ... reading COSX grid (gridx3)
Gradient of the Kohn-Sham DFT energy:
Kohn-Sham wavefunction type      ... RKS
Hartree-Fock exchange scaling    ...    0.200
Number of operators              ...    1
Number of atoms                  ...   13
Basis set dimensions             ...  293
Integral neglect threshold       ... 2.5e-11
Integral primitive cutoff        ... 2.5e-12
SHARK Integral package           ... ON

Nuc. rep. gradient       (SHARK) ... done (  0.0 sec)
HCore & Overlap gradient (SHARK) ... done (  0.1 sec)
ECP gradient             (SHARK) ... done (  2.2 sec)
RI-J gradient            (SHARK) ... done (  0.8 sec)
COSX-gradient                    ... done (  5.6 sec)
Exchange-correlation gradient    ... done

------------------
CARTESIAN GRADIENT
------------------

   1   W   :    0.000079494    0.000012365   -0.000029549
   2   C   :    0.044495285   -0.000815482    0.004287230
   3   C   :    0.000775828    0.044530514   -0.000699428
   4   C   :   -0.044442464    0.000804959   -0.004272912
   5   C   :   -0.000856088   -0.044789981    0.000713549
   6   C   :   -0.004376529    0.000858283    0.044293925
   7   C   :    0.004418663   -0.000866417   -0.044619179
   8   O   :    0.004176507   -0.000788122   -0.042900746
   9   O   :    0.000813790    0.043383758   -0.000691109
  10   O   :   -0.000770130   -0.043130133    0.000683958
  11   O   :   -0.004225872    0.000794085    0.043245300
  12   O   :    0.043038445   -0.000742830    0.004150201
  13   O   :   -0.043126534    0.000748755   -0.004160813

Difference to translation invariance:
           :    0.0000003953   -0.0000002452    0.0000004261

Difference to rotation invariance:
           :   -0.0002961569   -0.0006091080   -0.0003231830

Norm of the cartesian gradient     ...    0.1523710917
RMS gradient                       ...    0.0243989016
MAX gradient                       ...    0.0447899806

-------
TIMINGS
-------

Total SCF gradient time            ...       12.740 sec

One electron gradient       ....       2.290 sec  ( 18.0%)
RI-J Coulomb gradient       ....       0.776 sec  (  6.1%)
COSX gradient               ....       5.606 sec  ( 44.0%)
XC gradient                 ....       3.057 sec  ( 24.0%)

Maximum memory used throughout the entire SCFGRAD-calculation: 49.7 MB
------------------------------------------------------------------------------
                         ORCA GEOMETRY RELAXATION STEP
------------------------------------------------------------------------------

Reading the OPT-File                    .... done
Getting information on internals        .... done
Copying old internal coords+grads       .... done
Making the new internal coordinates     .... (new redundants).... done
Validating the new internal coordinates .... (new redundants).... done
Calculating the B-matrix                .... done
Calculating the G,G- and P matrices     .... done
Transforming gradient to internals      .... done
Projecting the internal gradient        .... done
Number of atoms                         ....  13
Number of internal coordinates          ....  36
Current Energy                          ....  -746.388445613 Eh
Current gradient norm                   ....     0.152371092 Eh/bohr
Maximum allowed component of the step   ....  0.300
Current trust radius                    ....  0.300
Evaluating the initial hessian          ....  (Almloef) done
Projecting the Hessian                  .... done
Forming the augmented Hessian           .... done
Diagonalizing the augmented Hessian     .... done
Last element of RFO vector              ....  0.996993826
Lowest eigenvalues of augmented Hessian:
 -0.007731566  0.109155732  0.109171077  0.109184931  0.109197810
Length of the computed step             ....  0.077714660
The final length of the internal step   ....  0.077714660
Converting the step to cartesian space:
 Initial RMS(Int)=    0.0129524433
Transforming coordinates:
 Iter   0:  RMS(Cart)=    0.0083060315 RMS(Int)=    0.0129524528
 Iter   1:  RMS(Cart)=    0.0000031546 RMS(Int)=    0.0000027622
 Iter   2:  RMS(Cart)=    0.0000016087 RMS(Int)=    0.0000012304
 Iter   3:  RMS(Cart)=    0.0000008152 RMS(Int)=    0.0000006230
 Iter   4:  RMS(Cart)=    0.0000004129 RMS(Int)=    0.0000003154
 Iter   5:  RMS(Cart)=    0.0000002091 RMS(Int)=    0.0000001597
 Iter   6:  RMS(Cart)=    0.0000001059 RMS(Int)=    0.0000000809
 Iter   7:  RMS(Cart)=    0.0000000537 RMS(Int)=    0.0000000409
done
Storing new coordinates                 .... done

                                .--------------------.
          ----------------------|Geometry convergence|-------------------------
          Item                value                   Tolerance       Converged
          ---------------------------------------------------------------------
          RMS gradient        0.0176787498            0.0001000000      NO
          MAX gradient        0.0434585005            0.0003000000      NO
          RMS step            0.0129524433            0.0020000000      NO
          MAX step            0.0294983887            0.0040000000      NO
          ........................................................
          Max(Bonds)      0.0156      Max(Angles)    0.02
          Max(Dihed)        0.00      Max(Improp)    0.00
          ---------------------------------------------------------------------

The optimization has not yet converged - more geometry cycles are needed


    ---------------------------------------------------------------------------
                         Redundant Internal Coordinates
                            (Angstroem and degrees)

        Definition                    Value    dE/dq     Step     New-Value
    ----------------------------------------------------------------------------
     1. B(C   1,W   0)                2.0948  0.001375 -0.0062    2.0885   
     2. B(C   2,W   0)                2.0948  0.001400 -0.0063    2.0885   
     3. B(C   3,W   0)                2.0949  0.001410 -0.0064    2.0885   
     4. B(C   4,W   0)                2.0949  0.001407 -0.0064    2.0885   
     5. B(C   5,W   0)                2.0948  0.001407 -0.0064    2.0885   
     6. B(C   6,W   0)                2.0948  0.001387 -0.0063    2.0885   
     7. B(O   7,C   5)                1.1281 -0.043111  0.0155    1.1436   
     8. B(O   8,C   4)                1.1279 -0.043397  0.0156    1.1435   
     9. B(O   9,C   2)                1.1281 -0.043142  0.0155    1.1436   
    10. B(O  10,C   6)                1.1279 -0.043459  0.0156    1.1435   
    11. B(O  11,C   3)                1.1280 -0.043244  0.0155    1.1436   
    12. B(O  12,C   1)                1.1280 -0.043333  0.0156    1.1436   
    13. A(C   4,W   0,C   5)           90.03  0.000048   -0.01     90.02   
    14. A(C   3,W   0,C   5)           89.96 -0.000081    0.02     89.97   
    15. A(C   2,W   0,C   3)           89.96 -0.000075    0.02     89.98   
    16. A(C   1,W   0,C   6)           89.94 -0.000075    0.02     89.96   
    17. A(C   2,W   0,C   6)           90.03  0.000065   -0.01     90.02   
    18. A(C   3,W   0,C   6)           90.06  0.000082   -0.02     90.04   
    19. A(C   4,W   0,C   6)           89.97 -0.000051    0.01     89.98   
    20. A(C   3,W   0,C   4)           90.01  0.000018   -0.00     90.01   
    21. A(C   1,W   0,C   2)           90.04  0.000084   -0.02     90.03   
    22. A(C   1,W   0,C   5)           90.04  0.000073   -0.02     90.03   
    23. A(C   1,W   0,C   4)           89.98 -0.000027    0.01     89.99   
    24. A(C   2,W   0,C   5)           89.97 -0.000062    0.01     89.98   
    25. L(W   0,C   1,O  12,C   6, 1) 179.98 -0.000003    0.00    179.98   
    26. L(W   0,C   1,O  12,C   6, 2) 180.02 -0.000001    0.00    180.02   
    27. L(W   0,C   2,O   9,C   3, 2) 179.98 -0.000012    0.00    179.98   
    28. L(W   0,C   2,O   9,C   3, 1) 179.98 -0.000027    0.00    179.99   
    29. L(W   0,C   3,O  11,C   5, 2) 179.98 -0.000000    0.00    179.98   
    30. L(W   0,C   3,O  11,C   5, 1) 179.98  0.000009   -0.00    179.98   
    31. L(W   0,C   4,O   8,C   6, 1) 179.98 -0.000045    0.01    179.99   
    32. L(W   0,C   4,O   8,C   6, 2) 179.99 -0.000019    0.00    179.99   
    33. L(W   0,C   5,O   7,C   3, 2) 180.02 -0.000001    0.00    180.02   
    34. L(W   0,C   5,O   7,C   3, 1) 179.99 -0.000014    0.00    179.99   
    35. L(W   0,C   6,O  10,C   1, 2) 179.98  0.000002   -0.00    179.98   
    36. L(W   0,C   6,O  10,C   1, 1) 179.97 -0.000040    0.01    179.97   
    ----------------------------------------------------------------------------

         *************************************************************
         *                GEOMETRY OPTIMIZATION CYCLE   2            *
         *************************************************************
---------------------------------
CARTESIAN COORDINATES (ANGSTROEM)
---------------------------------
  W     -1.376321    2.567207    0.107143
  C      0.702062    2.531509    0.309644
  C     -1.338145    4.655041    0.073684
  C     -3.454707    2.602855   -0.095409
  C     -1.414991    0.479316    0.140589
  C     -1.579167    2.604995    2.185406
  C     -1.172981    2.529453   -1.971141
  O     -1.690401    2.625999    3.323353
  O     -1.436026   -0.663884    0.158732
  O     -1.317539    5.798273    0.055579
  O     -1.061099    2.508511   -3.109002
  O     -4.592736    2.622635   -0.205898
  O      1.840102    2.511690    0.420039

----------------------------
CARTESIAN COORDINATES (A.U.)
----------------------------
  NO LB      ZA    FRAG     MASS         X           Y           Z
   0 W    14.0000*   0   183.850   -2.600870    4.851319    0.202472
   1 C     6.0000    0    12.011    1.326706    4.783859    0.585142
   2 C     6.0000    0    12.011   -2.528727    8.796753    0.139243
   3 C     6.0000    0    12.011   -6.528450    4.918684   -0.180297
   4 C     6.0000    0    12.011   -2.673946    0.905776    0.265675
   5 C     6.0000    0    12.011   -2.984193    4.922728    4.129819
   6 C     6.0000    0    12.011   -2.216613    4.779974   -3.724916
   7 O     8.0000    0    15.999   -3.194396    4.962419    6.280227
   8 O     8.0000    0    15.999   -2.713696   -1.254559    0.299960
   9 O     8.0000    0    15.999   -2.489789   10.957147    0.105029
  10 O     8.0000    0    15.999   -2.005186    4.740398   -5.875161
  11 O     8.0000    0    15.999   -8.679014    4.956062   -0.389091
  12 O     8.0000    0    15.999    3.477289    4.746406    0.793758
* core charge reduced due to ECP

--------------------------------
INTERNAL COORDINATES (ANGSTROEM)
--------------------------------
 W      0   0   0     0.000000000000     0.00000000     0.00000000
 C      1   0   0     2.088530071474     0.00000000     0.00000000
 C      1   2   0     2.088450805499    90.02578816     0.00000000
 C      1   2   3     2.088537205832   179.99802746   133.37031415
 C      1   2   3     2.088517032218    89.98771768   180.00091278
 C      1   2   3     2.088480376015    90.02747049   270.02118980
 C      1   2   3     2.088548997163    89.95911788    90.01999472
 O      6   1   2     1.143563504716   179.98227393   118.92414231
 O      5   1   2     1.143537714306   179.98900254   303.57818055
 O      3   1   2     1.143560556316   179.98153521   221.48494477
 O      7   1   2     1.143539969685   179.96923273    25.19434583
 O      4   1   3     1.143551177932   179.97531645   300.98920528
 O      2   1   3     1.143553165127   179.97215116   241.59063558

---------------------------
INTERNAL COORDINATES (A.U.)
---------------------------
 W      0   0   0     0.000000000000     0.00000000     0.00000000
 C      1   0   0     3.946749857545     0.00000000     0.00000000
 C      1   2   0     3.946600066560    90.02578816     0.00000000
 C      1   2   3     3.946763339527   179.99802746   133.37031415
 C      1   2   3     3.946725216922    89.98771768   180.00091278
 C      1   2   3     3.946655946738    90.02747049   270.02118980
 C      1   2   3     3.946785621915    89.95911788    90.01999472
 O      6   1   2     2.161021840660   179.98227393   118.92414231
 O      5   1   2     2.160973103849   179.98900254   303.57818055
 O      3   1   2     2.161016268991   179.98153521   221.48494477
 O      7   1   2     2.160977365898   179.96923273    25.19434583
 O      4   1   3     2.160998546414   179.97531645   300.98920528
 O      2   1   3     2.161002301670   179.97215116   241.59063558



           ************************************************************
           *        Program running with 8 parallel MPI-processes     *
           *              working on a common directory               *
           ************************************************************
------------------------------------------------------------------------------
                   ___                                                        
                  /   \      - P O W E R E D   B Y -                         
[...]
     20      -0.437459  -0.138101  -0.048434  -0.228583   0.324656   0.275891
     21       0.057995   0.018902  -0.216119  -0.023374   0.033133   0.029114
     22       0.004936  -0.045271   0.013269   0.004320  -0.006286  -0.005383
     23      -0.435430  -0.134786  -0.026604   0.239078  -0.339527  -0.298200
     24       0.021308  -0.006021  -0.008092  -0.003206  -0.007001   0.005614
     25       0.147485  -0.461801  -0.000090  -0.175004  -0.378509   0.299757
     26      -0.041080  -0.005416   0.008593   0.002854   0.006114  -0.004886
     27       0.018123   0.001968   0.007981   0.003202   0.006968  -0.005619
     28       0.147631  -0.461856  -0.000802   0.175020   0.378518  -0.299773
     29      -0.040694  -0.003312  -0.009465  -0.002828  -0.006065   0.004854
     30       0.053476   0.016749   0.216856   0.023420  -0.033203  -0.029159
     31       0.005698  -0.043863  -0.013518  -0.004311   0.006277   0.005375
     32      -0.435900  -0.135047   0.017157  -0.239024   0.339526   0.298158
     33       0.147227   0.059379   0.020142   0.413730   0.037489   0.297921
     34       0.008797  -0.039141   0.003167  -0.007179  -0.000753  -0.005068
     35      -0.023725  -0.004955  -0.217386   0.040165   0.003881   0.029296
     36       0.147692   0.059409  -0.022021  -0.413737  -0.037544  -0.297964
     37       0.011863  -0.047377  -0.003229   0.007187   0.000754   0.005066
     38      -0.028344  -0.007020   0.216326  -0.040145  -0.003877  -0.029308
                 24         25         26         27         28         29    
      0       0.000001   0.000002  -0.000000  -0.000008  -0.000033   0.000006
      1      -0.000006   0.000003  -0.000001   0.000034  -0.000011   0.000033
      2      -0.000007  -0.000011  -0.000001   0.000023   0.000054   0.000008
      3       0.025232   0.036647   0.014588  -0.003241   0.005496   0.046146
      4       0.235795  -0.200218   0.364191   0.394265  -0.222312   0.136292
      5      -0.218013  -0.413945  -0.085496   0.102580  -0.095534  -0.449389
      6       0.272690  -0.203972   0.335117   0.249472   0.394919  -0.075153
      7      -0.010096   0.005294  -0.000852  -0.005947  -0.005064   0.008427
      8      -0.328206   0.105113   0.331273  -0.085562   0.138477   0.444051
      9      -0.025243  -0.036688  -0.014586  -0.003262   0.005492   0.046159
     10      -0.235816   0.200223  -0.364145   0.394311  -0.222331   0.136310
     11       0.218076   0.414094   0.085534   0.102531  -0.095526  -0.449248
     12      -0.272671   0.204013  -0.335108   0.249510   0.394901  -0.075133
     13       0.010206  -0.005347   0.000821  -0.005994  -0.005049   0.008568
     14       0.328185  -0.105204  -0.331307  -0.085486   0.138434   0.444049
     15      -0.220630  -0.414803  -0.074102  -0.245910  -0.400142   0.028507
     16      -0.349098   0.131595   0.298060  -0.388652   0.227378  -0.145063
     17      -0.015222  -0.043075  -0.012709  -0.016946  -0.043233   0.005401
     18       0.220611   0.414776   0.074088  -0.245941  -0.400124   0.028640
     19       0.349144  -0.131589  -0.298185  -0.388578   0.227332  -0.145062
     20       0.015332   0.043242   0.012726  -0.017085  -0.043387   0.005432
     21       0.067875   0.127620   0.022794   0.084335   0.137193  -0.009771
     22       0.107394  -0.040505  -0.091734   0.133258  -0.077964   0.049733
     23       0.004532   0.012898   0.003859   0.005678   0.014707  -0.001903
     24       0.083913  -0.062798   0.103137  -0.085529  -0.135367   0.025736
     25      -0.003369   0.001841  -0.000263   0.002072   0.001754  -0.002971
     26      -0.101028   0.032369   0.102017   0.029333  -0.047494  -0.152328
     27      -0.083921   0.062783  -0.103141  -0.085519  -0.135373   0.025741
     28       0.003353  -0.001846   0.000335   0.002080   0.001769  -0.002956
     29       0.101035  -0.032332  -0.102004   0.029354  -0.047505  -0.152328
     30      -0.067871  -0.127616  -0.022789   0.084344   0.137189  -0.009805
     31      -0.107410   0.040504   0.091783   0.133236  -0.077952   0.049733
     32      -0.004542  -0.012909  -0.003858   0.005682   0.014720  -0.001888
     33       0.007813   0.011489   0.004502   0.000989  -0.001843  -0.015668
     34       0.072595  -0.061634   0.112072  -0.135299   0.076282  -0.046765
     35      -0.067088  -0.127348  -0.026311  -0.035160   0.032766   0.154048
     36      -0.007809  -0.011481  -0.004500   0.001003  -0.001827  -0.015679
     37      -0.072590   0.061634  -0.112095  -0.135290   0.076278  -0.046761
     38       0.067061   0.127285   0.026295  -0.035173   0.032767   0.154088
                 30         31         32         33         34         35    
      0      -0.016912  -0.070048   0.030960  -0.000045   0.000047  -0.000011
      1      -0.075876   0.011094  -0.016337   0.000000   0.000017   0.000064
      2      -0.010213   0.033471   0.070178  -0.000048  -0.000043   0.000011
      3       0.006985   0.039211   0.031528  -0.437086   0.344774  -0.083957
      4       0.462202  -0.060803   0.095481   0.007552  -0.006314  -0.000037
      5       0.052457  -0.241117  -0.404309  -0.041520   0.034663  -0.008432
      6       0.094493   0.425623  -0.189721   0.001172   0.001533   0.010386
      7       0.018362  -0.013406   0.000961   0.004640   0.139336   0.548098
      8       0.069164  -0.204004  -0.424096   0.001001  -0.001174  -0.009022
      9       0.006975   0.039225   0.031534  -0.437023   0.344741  -0.083939
     10       0.462184  -0.060803   0.095479   0.007542  -0.006307  -0.000041
     11       0.052447  -0.241089  -0.404254  -0.041533   0.034674  -0.008434
     12       0.094480   0.425618  -0.189725   0.001171   0.001537   0.010404
     13       0.018374  -0.013482   0.000861   0.004601   0.139286   0.548062
     14       0.069121  -0.203992  -0.424094   0.001000  -0.001210  -0.009167
     15       0.108151   0.402373  -0.225495   0.035745   0.040257  -0.010560
     16       0.459300  -0.063245   0.105966  -0.006532  -0.008103   0.000536
     17       0.004685   0.030304  -0.040684  -0.354775  -0.422909   0.110471
     18       0.108134   0.402377  -0.225435   0.035870   0.040396  -0.010599
     19       0.459262  -0.063234   0.105964  -0.006514  -0.008081   0.000529
     20       0.004749   0.030453  -0.040762  -0.354788  -0.422819   0.110474
     21      -0.033808  -0.123615   0.071748  -0.026504  -0.030451   0.007975
     22      -0.142313   0.019397  -0.033190   0.004884   0.005974  -0.000800
     23       0.001477  -0.020837  -0.006514   0.266093   0.317136  -0.082835
     24      -0.028884  -0.131995   0.058889  -0.000586  -0.001432  -0.007732
     25       0.016141   0.001550   0.004592  -0.003452  -0.104447  -0.411021
     26      -0.021800   0.063297   0.131486  -0.000460   0.001189   0.006797
     27      -0.028891  -0.131996   0.058887  -0.000586  -0.001429  -0.007717
     28       0.016147   0.001533   0.004557  -0.003481  -0.104483  -0.411046
     29      -0.021810   0.063300   0.131487  -0.000461   0.001162   0.006689
     30      -0.033805  -0.123619   0.071738  -0.026598  -0.030556   0.008004
     31      -0.142303   0.019395  -0.033189   0.004871   0.005957  -0.000796
     32       0.001463  -0.020869  -0.006505   0.266102   0.317071  -0.082837
     33       0.002504   0.007037  -0.020497   0.327722  -0.258570   0.062951
     34      -0.143450   0.018534  -0.029433  -0.005648   0.004627  -0.000370
     35      -0.015808   0.076587   0.124260   0.031418  -0.025712   0.006256
     36       0.002499   0.007034  -0.020485   0.327766  -0.258593   0.062964
     37      -0.143455   0.018534  -0.029433  -0.005655   0.004633  -0.000372
     38      -0.015811   0.076589   0.124273   0.031408  -0.025703   0.006254
                 36         37         38    
      0       0.000000   0.000000  -0.000000
      1       0.000000   0.000000  -0.000000
      2       0.000000  -0.000000  -0.000000
      3       0.418284  -0.207074   0.333626
      4      -0.007215   0.003572  -0.005751
      5       0.040672  -0.020138   0.032449
      6      -0.000556   0.008647   0.006193
      7      -0.029990   0.467863   0.335234
      8       0.000476  -0.007468  -0.005352
      9      -0.418374   0.207073  -0.333624
     10       0.007209  -0.003568   0.005745
     11      -0.040699   0.020147  -0.032463
     12       0.000557  -0.008666  -0.006206
     13       0.029983  -0.467910  -0.335237
     14      -0.000483   0.007593   0.005435
     15       0.037839   0.025211  -0.032509
     16      -0.007103  -0.004732   0.006098
     17      -0.388431  -0.258751   0.333632
     18      -0.037975  -0.025307   0.032620
     19       0.007084   0.004721  -0.006082
     20       0.388434   0.258808  -0.333619
     21      -0.027175  -0.018101   0.022587
     22       0.005100   0.003396  -0.004240
     23       0.278823   0.185736  -0.231771
     24      -0.000397   0.006218   0.004313
     25      -0.021523   0.335877   0.232886
     26       0.000350  -0.005447  -0.003778
     27       0.000396  -0.006204  -0.004304
     28       0.021528  -0.335841  -0.232883
     29      -0.000345   0.005358   0.003717
     30       0.027272   0.018170  -0.022667
     31      -0.005086  -0.003388   0.004229
     32      -0.278826  -0.185779   0.231762
     33       0.300321  -0.148643   0.231767
     34      -0.005175   0.002560  -0.003994
     35       0.029222  -0.014462   0.022550
     36      -0.300253   0.148643  -0.231768
     37       0.005180  -0.002563   0.003998
     38      -0.029202   0.014456  -0.022540


-----------
IR SPECTRUM
-----------

 Mode   freq       eps      Int      T**2         TX        TY        TZ
       cm**-1   L/(mol*cm) km/mol    a.u.
----------------------------------------------------------------------------
  6:     58.42   0.000000    0.00  0.000000  (-0.000062 -0.000022 -0.000013)
  7:     58.57   0.000000    0.00  0.000000  ( 0.000013 -0.000072  0.000225)
  8:     58.61   0.000000    0.00  0.000000  (-0.000075 -0.000218 -0.000159)
  9:     81.94   0.000239    1.21  0.000909  (-0.030020 -0.000220  0.002809)
 10:     82.07   0.000239    1.21  0.000908  ( 0.002499  0.011909  0.027571)
 11:     82.10   0.000239    1.21  0.000907  ( 0.001309 -0.027666  0.011837)
 12:     84.39   0.000000    0.00  0.000000  ( 0.000006 -0.000002 -0.000021)
 13:     84.51   0.000000    0.00  0.000000  ( 0.000002 -0.000006  0.000001)
 14:     84.57   0.000000    0.00  0.000000  ( 0.000003 -0.000005 -0.000003)
 15:    357.32   0.000001    0.00  0.000000  (-0.000109  0.000633 -0.000262)
 16:    357.34   0.000003    0.02  0.000003  (-0.000217  0.001701 -0.000116)
 17:    357.41   0.012434   62.84  0.010856  (-0.095003 -0.001722 -0.042752)
 18:    357.43   0.012438   62.86  0.010860  ( 0.040582  0.029677 -0.091279)
 19:    357.46   0.012440   62.87  0.010860  ( 0.013717 -0.099875 -0.026406)
 20:    357.58   0.000002    0.01  0.000002  (-0.000132 -0.000128 -0.001223)
 21:    403.65   0.000000    0.00  0.000000  ( 0.000002  0.000003  0.000009)
 22:    403.66   0.000000    0.00  0.000000  (-0.000015  0.000000  0.000003)
 23:    422.34   0.000000    0.00  0.000000  (-0.000008 -0.000002 -0.000008)
 24:    479.88   0.000000    0.00  0.000000  (-0.000002  0.000013  0.000013)
 25:    479.89   0.000000    0.00  0.000000  (-0.000004 -0.000003  0.000018)
 26:    479.91   0.000000    0.00  0.000000  (-0.000000 -0.000015  0.000002)
 27:    531.83   0.000000    0.00  0.000000  ( 0.000067 -0.000016  0.000028)
 28:    531.87   0.000000    0.00  0.000000  ( 0.000009  0.000002 -0.000032)
 29:    531.88   0.000000    0.00  0.000000  (-0.000106 -0.000037  0.000027)
 30:    593.05   0.014141   71.46  0.007441  ( 0.018645  0.083474  0.011194)
 31:    593.11   0.014119   71.35  0.007429  ( 0.076957 -0.012197 -0.036845)
 32:    593.12   0.014146   71.49  0.007443  (-0.034126  0.017976 -0.077170)
 33:   2071.45   0.451568  2282.04  0.068029  (-0.185487  0.002614 -0.183348)
 34:   2071.46   0.451793  2283.18  0.068062  ( 0.179239  0.057979 -0.180482)
 35:   2071.48   0.451729  2282.85  0.068052  (-0.039003  0.254313  0.043074)
 36:   2098.31   0.000000    0.00  0.000000  (-0.000037 -0.000004 -0.000003)
 37:   2098.33   0.000000    0.00  0.000000  (-0.000019 -0.000012  0.000026)
 38:   2199.83   0.000000    0.00  0.000000  ( 0.000006 -0.000000  0.000005)

* The epsilon (eps) is given for a Dirac delta lineshape.
** The dipole moment derivative (T) already includes vibrational overlap.

The first frequency considered to be a vibration is 6
The total number of vibrations considered is 33


--------------------------
THERMOCHEMISTRY AT 298.15K
--------------------------

Temperature         ... 298.15 K
Pressure            ... 1.00 atm
Total Mass          ... 351.91 AMU

Throughout the following assumptions are being made:
  (1) The electronic state is orbitally nondegenerate
  (2) There are no thermally accessible electronically excited states
  (3) Hindered rotations indicated by low frequency modes are not
      treated as such but are treated as vibrations and this may
      cause some error
  (4) All equations used are the standard statistical mechanics
      equations for an ideal gas
  (5) All vibrations are strictly harmonic

freq.      58.42  E(vib)   ...       0.51 
freq.      58.57  E(vib)   ...       0.51 
freq.      58.61  E(vib)   ...       0.51 
freq.      81.94  E(vib)   ...       0.48 
freq.      82.07  E(vib)   ...       0.48 
freq.      82.10  E(vib)   ...       0.48 
freq.      84.39  E(vib)   ...       0.48 
freq.      84.51  E(vib)   ...       0.48 
freq.      84.57  E(vib)   ...       0.48 
freq.     357.32  E(vib)   ...       0.22 
freq.     357.34  E(vib)   ...       0.22 
freq.     357.41  E(vib)   ...       0.22 
freq.     357.43  E(vib)   ...       0.22 
freq.     357.46  E(vib)   ...       0.22 
freq.     357.58  E(vib)   ...       0.22 
freq.     403.65  E(vib)   ...       0.19 
freq.     403.66  E(vib)   ...       0.19 
freq.     422.34  E(vib)   ...       0.18 
freq.     479.88  E(vib)   ...       0.15 
freq.     479.89  E(vib)   ...       0.15 
freq.     479.91  E(vib)   ...       0.15 
freq.     531.83  E(vib)   ...       0.13 
freq.     531.87  E(vib)   ...       0.13 
freq.     531.88  E(vib)   ...       0.13 
freq.     593.05  E(vib)   ...       0.10 
freq.     593.11  E(vib)   ...       0.10 
freq.     593.12  E(vib)   ...       0.10 
freq.    2071.45  E(vib)   ...       0.00 
freq.    2071.46  E(vib)   ...       0.00 
freq.    2071.48  E(vib)   ...       0.00 
freq.    2098.31  E(vib)   ...       0.00 
freq.    2098.33  E(vib)   ...       0.00 
freq.    2199.83  E(vib)   ...       0.00 

------------
INNER ENERGY
------------

The inner energy is: U= E(el) + E(ZPE) + E(vib) + E(rot) + E(trans)
    E(el)   - is the total energy from the electronic structure calculation
              = E(kin-el) + E(nuc-el) + E(el-el) + E(nuc-nuc)
    E(ZPE)  - the the zero temperature vibrational energy from the frequency calculation
    E(vib)  - the the finite temperature correction to E(ZPE) due to population
              of excited vibrational states
    E(rot)  - is the rotational thermal energy
    E(trans)- is the translational thermal energy

Summary of contributions to the inner energy U:
Electronic energy                ...   -746.39278229 Eh
Zero point energy                ...      0.04892306 Eh      30.70 kcal/mol
Thermal vibrational correction   ...      0.01189035 Eh       7.46 kcal/mol
Thermal rotational correction    ...      0.00141627 Eh       0.89 kcal/mol
Thermal translational correction ...      0.00141627 Eh       0.89 kcal/mol
-----------------------------------------------------------------------
Total thermal energy                   -746.32913634 Eh


Summary of corrections to the electronic energy:
(perhaps to be used in another calculation)
Total thermal correction                  0.01472289 Eh       9.24 kcal/mol
Non-thermal (ZPE) correction              0.04892306 Eh      30.70 kcal/mol
-----------------------------------------------------------------------
Total correction                          0.06364595 Eh      39.94 kcal/mol


--------
ENTHALPY
--------

The enthalpy is H = U + kB*T
                kB is Boltzmann's constant
Total free energy                 ...   -746.32913634 Eh 
Thermal Enthalpy correction       ...      0.00094421 Eh       0.59 kcal/mol
-----------------------------------------------------------------------
Total Enthalpy                    ...   -746.32819213 Eh


Note: Only C1 symmetry has been detected, increase convergence thresholds 
      if your molecule has a higher symmetry. Symmetry factor of 1.0 is   
      used for the rotational entropy correction. 
 

Note: Rotational entropy computed according to Herzberg 
Infrared and Raman Spectra, Chapter V,1, Van Nostrand Reinhold, 1945 
Point Group:  C1, Symmetry Number:   1  
Rotational constants in cm-1:     0.019172     0.019166     0.019164 

Vibrational entropy computed according to the QRRHO of S. Grimme
Chem.Eur.J. 2012 18 9955


-------
ENTROPY
-------

The entropy contributions are T*S = T*(S(el)+S(vib)+S(rot)+S(trans))
     S(el)   - electronic entropy
     S(vib)  - vibrational entropy
     S(rot)  - rotational entropy
     S(trans)- translational entropy
The entropies will be listed as multiplied by the temperature to get
units of energy

Electronic entropy                ...      0.00000000 Eh      0.00 kcal/mol
Vibrational entropy               ...      0.02144308 Eh     13.46 kcal/mol
Rotational entropy                ...      0.01511150 Eh      9.48 kcal/mol
Translational entropy             ...      0.02065320 Eh     12.96 kcal/mol
-----------------------------------------------------------------------
Final entropy term                ...      0.05720779 Eh     35.90 kcal/mol

In case the symmetry of your molecule has not been determined correctly
or in case you have a reason to use a different symmetry number we print 
out the resulting rotational entropy values for sn=1,12 :
 --------------------------------------------------------
|  sn= 1 | S(rot)=       0.01511150 Eh      9.48 kcal/mol|
|  sn= 2 | S(rot)=       0.01445705 Eh      9.07 kcal/mol|
|  sn= 3 | S(rot)=       0.01407422 Eh      8.83 kcal/mol|
|  sn= 4 | S(rot)=       0.01380259 Eh      8.66 kcal/mol|
|  sn= 5 | S(rot)=       0.01359190 Eh      8.53 kcal/mol|
|  sn= 6 | S(rot)=       0.01341976 Eh      8.42 kcal/mol|
|  sn= 7 | S(rot)=       0.01327421 Eh      8.33 kcal/mol|
|  sn= 8 | S(rot)=       0.01314814 Eh      8.25 kcal/mol|
|  sn= 9 | S(rot)=       0.01303693 Eh      8.18 kcal/mol|
|  sn=10 | S(rot)=       0.01293745 Eh      8.12 kcal/mol|
|  sn=11 | S(rot)=       0.01284746 Eh      8.06 kcal/mol|
|  sn=12 | S(rot)=       0.01276530 Eh      8.01 kcal/mol|
 --------------------------------------------------------


-------------------
GIBBS FREE ENERGY
-------------------

The Gibbs free energy is G = H - T*S

Total enthalpy                    ...   -746.32819213 Eh 
Total entropy correction          ...     -0.05720779 Eh    -35.90 kcal/mol
-----------------------------------------------------------------------
Final Gibbs free energy         ...   -746.38539992 Eh

For completeness - the Gibbs free energy minus the electronic energy
G-E(el)                           ...      0.00738237 Eh      4.63 kcal/mol


Timings for individual modules:

Sum of individual times         ...      645.107 sec (=  10.752 min)
GTO integral calculation        ...        7.199 sec (=   0.120 min)   1.1 %
SCF iterations                  ...      172.425 sec (=   2.874 min)  26.7 %
SCF Gradient evaluation         ...       51.486 sec (=   0.858 min)   8.0 %
Geometry relaxation             ...        0.178 sec (=   0.003 min)   0.0 %
Analytical frequency calculation...      413.819 sec (=   6.897 min)  64.1 %
                             ****ORCA TERMINATED NORMALLY****
TOTAL RUN TIME: 0 days 0 hours 10 minutes 46 seconds 105 msec
