
                                 *****************
                                 * O   R   C   A *
                                 *****************

                                            #,                                       
                                            ###                                      
                                            ####                                     
                                            #####                                    
                                            ######                                   
                                           ########,                                 
                                     ,,################,,,,,                         
                               ,,#################################,,                 
                          ,,##########################################,,             
                       ,#########################################, ''#####,          
                    ,#############################################,,   '####,        
                  ,##################################################,,,,####,       
                ,###########''''           ''''###############################       
              ,#####''   ,,,,##########,,,,          '''####'''          '####       
            ,##' ,,,,###########################,,,                        '##       
           ' ,,###''''                  '''############,,,                           
         ,,##''                                '''############,,,,        ,,,,,,###''
      ,#''                                            '''#######################'''  
     '                                                          ''''####''''         
             ,#######,   #######,   ,#######,      ##                                
            ,#'     '#,  ##    ##  ,#'     '#,    #''#        ######   ,####,        
            ##       ##  ##   ,#'  ##            #'  '#       #        #'  '#        
            ##       ##  #######   ##           ,######,      #####,   #    #        
            '#,     ,#'  ##    ##  '#,     ,#' ,#      #,         ##   #,  ,#        
             '#######'   ##     ##  '#######'  #'      '#     #####' # '####'        



                  #######################################################
                  #                        -***-                        #
                  #          Department of theory and spectroscopy      #
                  #    Directorship and core code : Frank Neese         #
                  #        Max Planck Institute fuer Kohlenforschung    #
                  #                Kaiser Wilhelm Platz 1               #
                  #                 D-45470 Muelheim/Ruhr               #
                  #                      Germany                        #
                  #                                                     #
                  #                  All rights reserved                #
                  #                        -***-                        #
                  #######################################################



                         Program Version 5.0.4 -  RELEASE  -

 With contributions from (in alphabetic order):
   Daniel Aravena         : Magnetic Suceptibility
   Michael Atanasov       : Ab Initio Ligand Field Theory (pilot matlab implementation)
   Alexander A. Auer      : GIAO ZORA, VPT2 properties, NMR spectrum
   Ute Becker             : Parallelization
   Giovanni Bistoni       : ED, misc. LED, open-shell LED, HFLD
   Martin Brehm           : Molecular dynamics
   Dmytro Bykov           : SCF Hessian
   Vijay G. Chilkuri      : MRCI spin determinant printing, contributions to CSF-ICE
   Dipayan Datta          : RHF DLPNO-CCSD density
   Achintya Kumar Dutta   : EOM-CC, STEOM-CC
   Dmitry Ganyushin       : Spin-Orbit,Spin-Spin,Magnetic field MRCI
   Miquel Garcia          : C-PCM and meta-GGA Hessian, CC/C-PCM, Gaussian charge scheme
   Yang Guo               : DLPNO-NEVPT2, F12-NEVPT2, CIM, IAO-localization
   Andreas Hansen         : Spin unrestricted coupled pair/coupled cluster methods
   Benjamin Helmich-Paris : MC-RPA, TRAH-SCF, COSX integrals
   Lee Huntington         : MR-EOM, pCC
   Robert Izsak           : Overlap fitted RIJCOSX, COSX-SCS-MP3, EOM
   Marcus Kettner         : VPT2
   Christian Kollmar      : KDIIS, OOCD, Brueckner-CCSD(T), CCSD density, CASPT2, CASPT2-K
   Simone Kossmann        : Meta GGA functionals, TD-DFT gradient, OOMP2, MP2 Hessian
   Martin Krupicka        : Initial AUTO-CI
   Lucas Lang             : DCDCAS
   Marvin Lechner         : AUTO-CI (C++ implementation), FIC-MRCC
   Dagmar Lenk            : GEPOL surface, SMD
   Dimitrios Liakos       : Extrapolation schemes; Compound Job, initial MDCI parallelization
   Dimitrios Manganas     : Further ROCIS development; embedding schemes
   Dimitrios Pantazis     : SARC Basis sets
   Anastasios Papadopoulos: AUTO-CI, single reference methods and gradients
   Taras Petrenko         : DFT Hessian,TD-DFT gradient, ASA, ECA, R-Raman, ABS, FL, XAS/XES, NRVS
   Peter Pinski           : DLPNO-MP2, DLPNO-MP2 Gradient
   Christoph Reimann      : Effective Core Potentials
   Marius Retegan         : Local ZFS, SOC
   Christoph Riplinger    : Optimizer, TS searches, QM/MM, DLPNO-CCSD(T), (RO)-DLPNO pert. Triples
   Tobias Risthaus        : Range-separated hybrids, TD-DFT gradient, RPA, STAB
   Michael Roemelt        : Original ROCIS implementation
   Masaaki Saitow         : Open-shell DLPNO-CCSD energy and density
   Barbara Sandhoefer     : DKH picture change effects
   Avijit Sen             : IP-ROCIS
   Kantharuban Sivalingam : CASSCF convergence, NEVPT2, FIC-MRCI
   Bernardo de Souza      : ESD, SOC TD-DFT
   Georgi Stoychev        : AutoAux, RI-MP2 NMR, DLPNO-MP2 response
   Willem Van den Heuvel  : Paramagnetic NMR
   Boris Wezisla          : Elementary symmetry handling
   Frank Wennmohs         : Technical directorship


 We gratefully acknowledge several colleagues who have allowed us to
 interface, adapt or use parts of their codes:
   Stefan Grimme, W. Hujo, H. Kruse, P. Pracht,  : VdW corrections, initial TS optimization,
                  C. Bannwarth, S. Ehlert          DFT functionals, gCP, sTDA/sTD-DF
   Ed Valeev, F. Pavosevic, A. Kumar             : LibInt (2-el integral package), F12 methods
   Garnet Chan, S. Sharma, J. Yang, R. Olivares  : DMRG
   Ulf Ekstrom                                   : XCFun DFT Library
   Mihaly Kallay                                 : mrcc  (arbitrary order and MRCC methods)
   Jiri Pittner, Ondrej Demel                    : Mk-CCSD
   Frank Weinhold                                : gennbo (NPA and NBO analysis)
   Christopher J. Cramer and Donald G. Truhlar   : smd solvation model
   Lars Goerigk                                  : TD-DFT with DH, B97 family of functionals
   V. Asgeirsson, H. Jonsson                     : NEB implementation
   FAccTs GmbH                                   : IRC, NEB, NEB-TS, DLPNO-Multilevel, CI-OPT
                                                   MM, QMMM, 2- and 3-layer-ONIOM, Crystal-QMMM,
                                                   LR-CPCM, SF, NACMEs, symmetry and pop. for TD-DFT,
                                                   nearIR, NL-DFT gradient (VV10), updates on ESD,
                                                   ML-optimized integration grids
   S Lehtola, MJT Oliveira, MAL Marques          : LibXC Library
   Liviu Ungur et al                             : ANISO software


 Your calculation uses the libint2 library for the computation of 2-el integrals
 For citations please refer to: http://libint.valeyev.net

 Your ORCA version has been built with support for libXC version: 5.1.0
 For citations please refer to: https://tddft.org/programs/libxc/

 This ORCA versions uses:
   CBLAS   interface :  Fast vector & matrix operations
   LAPACKE interface :  Fast linear algebra routines
   Shared memory     :  Shared parallel matrices


================================================================================

cite the ECPs for W  [Def2-ECP] as follows:
Ce-Yb(ecp-28): M. Dolg, H. Stoll, H.Preuss, J. Chem. Phys., 1989, 90, 1730-1734.
Y-Cd(ecp-28), Hf-Hg(ecp-46): D. Andrae,U. Haeussermann, M. Dolg, H. Stoll, H. Preuss, Theor. Chim. Acta, 1990, 77, 123-141.
In-Sb(ecp-28), Tl-Bi(ecp-46): B. Metz, H. Stoll, M. Dolg, J. Chem. Phys., 2000, 113, 2563-2569.
Te-Xe(ecp-28), Po-Rn(ecp-46): K. A. Peterson, D. Figgen, E. Goll, H. Stoll, M. Dolg, J. Chem. Phys., 2003, 119, 11113-11123.
Rb(ecp-28), Cs(ecp-46): T. Leininger, A. Nicklass, W. Kuechle, H. Stoll, M. Dolg, A. Bergner, Chem. Phys. Lett., 1996, 255, 274-280.
Sr(ecp-28), Ba(ecp-46): M. Kaupp, P. V. Schleyer, H. Stoll and H. Preuss, J. Chem. Phys., 1991, 94, 1360-1366.
La(ecp-46): M. Dolg, H. Stoll, A. Savin, H. Preuss, Theor. Chim. Acta, 1989, 75, 173-194.
Lu(ecp-28): X. Cao, M. Dolg, J. Chem. Phys., 2001, 115, 7348-7355.

ECP parameters for W  [Def2-ECP] have been obtained from:
TURBOMOLE (7.0.2)

----- Orbital basis set information -----
Your calculation utilizes the basis: def2-SVPD
   F. Weigend and R. Ahlrichs, Phys. Chem. Chem. Phys. 7, 3297 (2005).
   D. Rappoport and F. Furche, J. Chem. Phys. 133 134105 (2010).

----- AuxJ basis set information -----
Your calculation utilizes the auxiliary basis: def2/J
   F. Weigend, Phys. Chem. Chem. Phys. 8, 1057 (2006).

================================================================================
                                        WARNINGS
                       Please study these warnings very carefully!
================================================================================


WARNING: your system is open-shell and RHF/RKS was chosen
  ===> : WILL SWITCH to UHF/UKS


WARNING: Geometry Optimization
  ===> : Switching off AutoStart
         For restart on a previous wavefunction, please use MOREAD

INFO   : the flag for use of the SHARK integral package has been found!

================================================================================
                                       INPUT FILE
================================================================================
NAME = WCO6-.inp
|  1> !B3LYP def2-SVPD OPT FREQ TightSCF PAL8
|  2> 
|  3> %scf
|  4>   MaxIter 300
|  5> end
|  6> 
|  7> * xyz -1 2 
|  8> W         -1.37621        2.56722        0.10711
|  9> C          0.70839        2.53117        0.30993
| 10> C         -1.33834        4.66140        0.07376
| 11> C         -3.46098        2.60316       -0.09572
| 12> C         -1.41502        0.47296        0.14051
| 13> C         -1.57994        2.60535        2.19168
| 14> C         -1.17198        2.52910       -1.97739
| 15> O         -1.68985        2.62619        3.31419
| 16> O         -1.43573       -0.65466        0.15820
| 17> O         -1.31832        5.78914        0.05603
| 18> O         -1.06136        2.50831       -3.09969
| 19> O         -4.58356        2.62277       -0.20455
| 20> O          1.83095        2.51149        0.41866
| 21> **                         ****END OF INPUT****
================================================================================

                       *****************************
                       * Geometry Optimization Run *
                       *****************************

Geometry optimization settings:
Update method            Update   .... BFGS
Choice of coordinates    CoordSys .... Z-matrix Internals
Initial Hessian          InHess   .... Almoef's Model

Convergence Tolerances:
Energy Change            TolE     ....  5.0000e-06 Eh
Max. Gradient            TolMAXG  ....  3.0000e-04 Eh/bohr
RMS Gradient             TolRMSG  ....  1.0000e-04 Eh/bohr
Max. Displacement        TolMAXD  ....  4.0000e-03 bohr
RMS Displacement         TolRMSD  ....  2.0000e-03 bohr
Strict Convergence                ....  False
------------------------------------------------------------------------------
                        ORCA OPTIMIZATION COORDINATE SETUP
------------------------------------------------------------------------------

The optimization will be done in new redundant internal coordinates
Making redundant internal coordinates   ...  (new redundants) done
Evaluating the initial hessian          ...  (Almloef) done
Evaluating the coordinates              ...  done
Calculating the B-matrix                .... done
Calculating the G-matrix                .... done
Diagonalizing the G-matrix              .... done
The first mode is                       ....    3
The number of degrees of freedom        ....   33

    -----------------------------------------------------------------
                    Redundant Internal Coordinates


    -----------------------------------------------------------------
         Definition                    Initial Value    Approx d2E/dq
    -----------------------------------------------------------------
      1. B(C   1,W   0)                  2.0948         0.109219   
      2. B(C   2,W   0)                  2.0948         0.109206   
      3. B(C   3,W   0)                  2.0949         0.109152   
      4. B(C   4,W   0)                  2.0949         0.109166   
      5. B(C   5,W   0)                  2.0948         0.109181   
      6. B(C   6,W   0)                  2.0948         0.109190   
      7. B(O   7,C   5)                  1.1281         1.464762   
      8. B(O   8,C   4)                  1.1279         1.465417   
      9. B(O   9,C   2)                  1.1281         1.464835   
     10. B(O  10,C   6)                  1.1279         1.465518   
     11. B(O  11,C   3)                  1.1280         1.465070   
     12. B(O  12,C   1)                  1.1280         1.465222   
     13. A(C   4,W   0,C   5)           90.0303         0.265702   
     14. A(C   3,W   0,C   5)           89.9571         0.265697   
     15. A(C   2,W   0,C   3)           89.9598         0.265706   
     16. A(C   1,W   0,C   6)           89.9434         0.265725   
     17. A(C   2,W   0,C   6)           90.0337         0.265720   
     18. A(C   3,W   0,C   6)           90.0567         0.265700   
     19. A(C   4,W   0,C   6)           89.9702         0.265705   
     20. A(C   3,W   0,C   4)           90.0148         0.265691   
     21. A(C   1,W   0,C   2)           90.0433         0.265730   
     22. A(C   1,W   0,C   5)           90.0428         0.265721   
     23. A(C   1,W   0,C   4)           89.9821         0.265716   
     24. A(C   2,W   0,C   5)           89.9659         0.265716   
     25. L(W   0,C   1,O  12,C   6, 1) 179.9750         0.386553   
     26. L(W   0,C   1,O  12,C   6, 2) 180.0186         0.386553   
     27. L(W   0,C   2,O   9,C   3, 2) 179.9810         0.386527   
     28. L(W   0,C   2,O   9,C   3, 1) 179.9823         0.386527   
     29. L(W   0,C   3,O  11,C   5, 2) 179.9820         0.386504   
     30. L(W   0,C   3,O  11,C   5, 1) 179.9802         0.386504   
     31. L(W   0,C   4,O   8,C   6, 1) 179.9842         0.386529   
     32. L(W   0,C   4,O   8,C   6, 2) 179.9887         0.386529   
     33. L(W   0,C   5,O   7,C   3, 2) 180.0218         0.386508   
     34. L(W   0,C   5,O   7,C   3, 1) 179.9894         0.386508   
     35. L(W   0,C   6,O  10,C   1, 2) 179.9818         0.386548   
     36. L(W   0,C   6,O  10,C   1, 1) 179.9663         0.386548   
    -----------------------------------------------------------------

Number of atoms                         .... 13
Number of degrees of freedom            .... 36

         *************************************************************
         *                GEOMETRY OPTIMIZATION CYCLE   1            *
         *************************************************************
---------------------------------
CARTESIAN COORDINATES (ANGSTROEM)
---------------------------------
  W     -1.376210    2.567220    0.107110
  C      0.708390    2.531170    0.309930
  C     -1.338340    4.661400    0.073760
  C     -3.460980    2.603160   -0.095720
  C     -1.415020    0.472960    0.140510
  C     -1.579940    2.605350    2.191680
  C     -1.171980    2.529100   -1.977390
  O     -1.689850    2.626190    3.314190
  O     -1.435730   -0.654660    0.158200
  O     -1.318320    5.789140    0.056030
  O     -1.061360    2.508310   -3.099690
  O     -4.583560    2.622770   -0.204550
  O      1.830950    2.511490    0.418660

----------------------------
CARTESIAN COORDINATES (A.U.)
----------------------------
  NO LB      ZA    FRAG     MASS         X           Y           Z
   0 W    14.0000*   0   183.850   -2.600660    4.851343    0.202409
   1 C     6.0000    0    12.011    1.338663    4.783218    0.585683
   2 C     6.0000    0    12.011   -2.529096    8.808769    0.139386
   3 C     6.0000    0    12.011   -6.540304    4.919259   -0.180885
   4 C     6.0000    0    12.011   -2.674000    0.893765    0.265525
   5 C     6.0000    0    12.011   -2.985654    4.923398    4.141675
   6 C     6.0000    0    12.011   -2.214721    4.779306   -3.736726
   7 O     8.0000    0    15.999   -3.193354    4.962780    6.262911
   8 O     8.0000    0    15.999   -2.713137   -1.237128    0.298955
   9 O     8.0000    0    15.999   -2.491264   10.939889    0.105881
  10 O     8.0000    0    15.999   -2.005680    4.740019   -5.857565
  11 O     8.0000    0    15.999   -8.661673    4.956317   -0.386543
  12 O     8.0000    0    15.999    3.459994    4.746028    0.791153
* core charge reduced due to ECP

--------------------------------
INTERNAL COORDINATES (ANGSTROEM)
--------------------------------
 W      0   0   0     0.000000000000     0.00000000     0.00000000
 C      1   0   0     2.094753616753     0.00000000     0.00000000
 C      1   2   0     2.094787872745    90.04329025     0.00000000
 C      1   2   3     2.094921870954   179.99690674   182.29116734
 C      1   2   3     2.094885849802    89.98212640   180.00380390
 C      1   2   3     2.094848895434    90.04279574   270.03411615
 C      1   2   3     2.094827744064    89.94341391    90.03361590
 O      6   1   2     1.128070571285   179.98128769   124.50532445
 O      5   1   2     1.127948892725   179.98232997   296.87930288
 O      3   1   2     1.128057029099   179.97774731   217.10318201
 O      7   1   2     1.127930094687   179.96392626    20.91481758
 O      4   1   2     1.128013465079   179.97643751   120.50657057
 O      2   1   3     1.127985136826   179.97178934   242.17983125

---------------------------
INTERNAL COORDINATES (A.U.)
---------------------------
 W      0   0   0     0.000000000000     0.00000000     0.00000000
 C      1   0   0     3.958510653704     0.00000000     0.00000000
 C      1   2   0     3.958575388148    90.04329025     0.00000000
 C      1   2   3     3.958828608064   179.99690674   182.29116734
 C      1   2   3     3.958760537952    89.98212640   180.00380390
 C      1   2   3     3.958690704317    90.04279574   270.03411615
 C      1   2   3     3.958650734021    89.94341391    90.03361590
 O      6   1   2     2.131744439465   179.98128769   124.50532445
 O      5   1   2     2.131514500310   179.98232997   296.87930288
 O      3   1   2     2.131718848442   179.97774731   217.10318201
 O      7   1   2     2.131478977166   179.96392626    20.91481758
 O      4   1   2     2.131636524375   179.97643751   120.50657057
 O      2   1   3     2.131582991735   179.97178934   242.17983125

---------------------
BASIS SET INFORMATION
---------------------
There are 3 groups of distinct atoms

 Group   1 Type W   : 7s7p5d1f contracted to 6s4p2d1f pattern {211111/4111/41/1}
 Group   2 Type C   : 8s4p2d contracted to 4s2p2d pattern {5111/31/11}
 Group   3 Type O   : 8s5p2d contracted to 4s3p2d pattern {5111/311/11}

Atom   0W    basis set group =>   1
Atom   1C    basis set group =>   2
Atom   2C    basis set group =>   2
Atom   3C    basis set group =>   2
Atom   4C    basis set group =>   2
Atom   5C    basis set group =>   2
Atom   6C    basis set group =>   2
Atom   7O    basis set group =>   3
Atom   8O    basis set group =>   3
Atom   9O    basis set group =>   3
Atom  10O    basis set group =>   3
Atom  11O    basis set group =>   3
Atom  12O    basis set group =>   3
---------------------------------
AUXILIARY/J BASIS SET INFORMATION
---------------------------------
There are 3 groups of distinct atoms

 Group   1 Type W   : 11s5p5d3f3g contracted to 8s5p5d2f3g pattern {41111111/11111/11111/21/111}
 Group   2 Type C   : 12s5p4d2f1g contracted to 6s4p3d1f1g pattern {711111/2111/211/2/1}
 Group   3 Type O   : 12s5p4d2f1g contracted to 6s4p3d1f1g pattern {711111/2111/211/2/1}

Atom   0W    basis set group =>   1
Atom   1C    basis set group =>   2
Atom   2C    basis set group =>   2
Atom   3C    basis set group =>   2
Atom   4C    basis set group =>   2
Atom   5C    basis set group =>   2
Atom   6C    basis set group =>   2
Atom   7O    basis set group =>   3
Atom   8O    basis set group =>   3
Atom   9O    basis set group =>   3
Atom  10O    basis set group =>   3
Atom  11O    basis set group =>   3
Atom  12O    basis set group =>   3
-------------------------
ECP PARAMETER INFORMATION
-------------------------

 Group 1, Type W  ECP Def2-ECP (replacing 60 core electrons, lmax=3)

Atom   0W    ECP group =>   1



           ************************************************************
           *        Program running with 8 parallel MPI-processes     *
           *              working on a common directory               *
           ************************************************************
------------------------------------------------------------------------------
                           ORCA GTO INTEGRAL CALCULATION
                           -- RI-GTO INTEGRALS CHOSEN --
------------------------------------------------------------------------------
------------------------------------------------------------------------------
                   ___                                                        
                  /   \      - P O W E R E D   B Y -                         
                 /     \                                                     
                 |  |  |   _    _      __       _____    __    __             
                 |  |  |  | |  | |    /  \     |  _  \  |  |  /  |          
                  \  \/   | |  | |   /    \    | | | |  |  | /  /          
                 / \  \   | |__| |  /  /\  \   | |_| |  |  |/  /          
                |  |  |   |  __  | /  /__\  \  |    /   |      \           
                |  |  |   | |  | | |   __   |  |    \   |  |\   \          
                \     /   | |  | | |  |  |  |  | |\  \  |  | \   \       
                 \___/    |_|  |_| |__|  |__|  |_| \__\ |__|  \__/        
                                                                              
                      - O R C A' S   B I G   F R I E N D -                    
                                      &                                       
                       - I N T E G R A L  F E E D E R -                       
                                                                              
 v1 FN, 2020, v2 2021                                                         
------------------------------------------------------------------------------


Reading SHARK input file WCO6-.SHARKINP.tmp ... ok
----------------------
SHARK INTEGRAL PACKAGE
----------------------

Number of atoms                             ...     13
Number of basis functions                   ...    293
Number of shells                            ...    115
Maximum angular momentum                    ...      3
Integral batch strategy                     ... SHARK/LIBINT Hybrid
RI-J (if used) integral strategy            ... SPLIT-RIJ (Revised 2003 algorithm where possible)
Printlevel                                  ...      1
Contraction scheme used                     ... SEGMENTED contraction
Coulomb Range Separation                    ... NOT USED
Exchange Range Separation                   ... NOT USED
Finite Nucleus Model                        ... NOT USED
Auxiliary Coulomb fitting basis             ... AVAILABLE
   # of basis functions in Aux-J            ...    677
   # of shells in Aux-J                     ...    203
   Maximum angular momentum in Aux-J        ...      4
Auxiliary J/K fitting basis                 ... NOT available
Auxiliary Correlation fitting basis         ... NOT available
Auxiliary 'external' fitting basis          ... NOT available
Integral threshold                          ...     2.500000e-11
Primitive cut-off                           ...     2.500000e-12
Primitive pair pre-selection threshold      ...     2.500000e-12

Calculating pre-screening integrals         ... done (  0.0 sec) Dimension = 115
Organizing shell pair data                  ... done (  0.2 sec)
Shell pair information
Total number of shell pairs                 ...      6670
Shell pairs after pre-screening             ...      6079
Total number of primitive shell pairs       ...     19084
Primitive shell pairs kept                  ...     13363
          la=0 lb=0:   1290 shell pairs
          la=1 lb=0:   1692 shell pairs
          la=1 lb=1:    568 shell pairs
          la=2 lb=0:   1248 shell pairs
          la=2 lb=1:    836 shell pairs
          la=2 lb=2:    330 shell pairs
          la=3 lb=0:     54 shell pairs
          la=3 lb=1:     34 shell pairs
          la=3 lb=2:     26 shell pairs
          la=3 lb=3:      1 shell pairs

Calculating one electron integrals          ... done (  0.0 sec)
Calculating ECP integrals                   ... done (  0.7 sec)
Calculating RI/J V-Matrix + Cholesky decomp.... done (  0.1 sec)
Calculating Nuclear repulsion               ... done (  0.0 sec) ENN=    755.755504036229 Eh

SHARK setup successfully completed in   1.4 seconds

Maximum memory used throughout the entire GTOINT-calculation: 18.0 MB


           ************************************************************
           *        Program running with 8 parallel MPI-processes     *
           *              working on a common directory               *
           ************************************************************
-------------------------------------------------------------------------------
                                 ORCA SCF
-------------------------------------------------------------------------------

------------
SCF SETTINGS
------------
Hamiltonian:
 Density Functional     Method          .... DFT(GTOs)
 Exchange Functional    Exchange        .... B88
   X-Alpha parameter    XAlpha          ....  0.666667
   Becke's b parameter  XBeta           ....  0.004200
 Correlation Functional Correlation     .... LYP
 LDA part of GGA corr.  LDAOpt          .... VWN-5
 Gradients option       PostSCFGGA      .... off
 Hybrid DFT is turned on
   Fraction HF Exchange ScalHFX         ....  0.200000
   Scaling of DF-GGA-X  ScalDFX         ....  0.720000
   Scaling of DF-GGA-C  ScalDFC         ....  0.810000
   Scaling of DF-LDA-C  ScalLDAC        ....  1.000000
   Perturbative correction              ....  0.000000
   Density functional embedding theory  .... OFF
   NL short-range parameter             ....  4.800000
 RI-approximation to the Coulomb term is turned on
   Number of AuxJ basis functions       .... 677
   RIJ-COSX (HFX calculated with COS-X)).... on


General Settings:
 Integral files         IntName         .... WCO6-
 Hartree-Fock type      HFTyp           .... UHF
 Total Charge           Charge          ....   -1
 Multiplicity           Mult            ....    2
 Number of Electrons    NEL             ....   99
 Basis Dimension        Dim             ....  293
 Nuclear Repulsion      ENuc            ....    755.7555040362 Eh

Convergence Acceleration:
 DIIS                   CNVDIIS         .... on
   Start iteration      DIISMaxIt       ....    12
   Startup error        DIISStart       ....  0.200000
   # of expansion vecs  DIISMaxEq       ....     5
   Bias factor          DIISBfac        ....   1.050
   Max. coefficient     DIISMaxC        ....  10.000
 Trust-Rad. Augm. Hess. CNVTRAH         .... auto
   Auto Start mean grad. ratio tolernc. ....  1.125000
   Auto Start start iteration           ....    20
   Auto Start num. interpolation iter.  ....    10
   Max. Number of Micro iterations      ....    16
   Max. Number of Macro iterations      .... Maxiter - #DIIS iter
   Number of Davidson start vectors     ....     2
   Converg. threshold I  (grad. norm)   ....   1.000e-05
   Converg. threshold II (energy diff.) ....   1.000e-08
   Grad. Scal. Fac. for Micro threshold ....   0.100
   Minimum threshold for Micro iter.    ....   0.010
   NR start threshold (gradient norm)   ....   0.001
   Initial trust radius                 ....   0.400
   Minimum AH scaling param. (alpha)    ....   1.000
   Maximum AH scaling param. (alpha)    .... 1000.000
   Orbital update algorithm             .... Taylor
   White noise on init. David. guess    .... on
   Maximum white noise                  ....   0.010
   Quad. conv. algorithm                .... NR
 SOSCF                  CNVSOSCF        .... off
 Level Shifting         CNVShift        .... on
   Level shift para.    LevelShift      ....    0.2500
   Turn off err/grad.   ShiftErr        ....    0.0010
 Zerner damping         CNVZerner       .... off
 Static damping         CNVDamp         .... on
   Fraction old density DampFac         ....    0.7000
   Max. Damping (<1)    DampMax         ....    0.9800
   Min. Damping (>=0)   DampMin         ....    0.0000
   Turn off err/grad.   DampErr         ....    0.1000
 Fernandez-Rico         CNVRico         .... off

SCF Procedure:
 Maximum # iterations   MaxIter         ....   300
 SCF integral mode      SCFMode         .... Direct
   Integral package                     .... SHARK and LIBINT hybrid scheme
 Reset frequency        DirectResetFreq ....    20
 Integral Threshold     Thresh          ....  2.500e-11 Eh
 Primitive CutOff       TCut            ....  2.500e-12 Eh

Convergence Tolerance:
 Convergence Check Mode ConvCheckMode   .... Total+1el-Energy
 Convergence forced     ConvForced      .... 0
 Energy Change          TolE            ....  1.000e-08 Eh
 1-El. energy change                    ....  1.000e-05 Eh
 DIIS Error             TolErr          ....  5.000e-07


Diagonalization of the overlap matrix:
Smallest eigenvalue                        ... 1.869e-05
Time for diagonalization                   ...    0.022 sec
Threshold for overlap eigenvalues          ... 1.000e-08
Number of eigenvalues below threshold      ... 0
Time for construction of square roots      ...    0.040 sec
Total time needed                          ...    0.062 sec

Time for model grid setup =    0.165 sec

------------------------------
INITIAL GUESS: MODEL POTENTIAL
------------------------------
Loading Hartree-Fock densities                     ... done
  calling C:\orca_5_0_4\orca WCO6-_atom74.inp > WCO6-_atom74.out in order to generate an atomic fitting density for atom 0 (W  with ECP) on-the-fly... 
    atom 0 (W ), assumed electronic state with S=5: 1s2 2s2 2p6 3s2 3p6 4s2 3d10 4p6 5s2 4d10 5p6 6s2 4f14 5d4           ... done
Calculating cut-offs                               ... done
Initializing the effective Hamiltonian             ... done
Setting up the integral package (SHARK)            ... done
Starting the Coulomb interaction                   ... done (   0.1 sec)
Reading the grid                                   ... done
Mapping shells                                     ... done
Starting the XC term evaluation                    ... done (   0.1 sec)
  promolecular density results
     # of electrons  =    158.004554816
     EX              =   -406.132981936
     EC              =     -6.997099835
     EX+EC           =   -413.130081771
Transforming the Hamiltonian                       ... done (   0.0 sec)
Diagonalizing the Hamiltonian                      ... done (   0.0 sec)
Back transforming the eigenvectors                 ... done (   0.0 sec)
Now organizing SCF variables                       ... done
                      ------------------
                      INITIAL GUESS DONE (   1.8 sec)
                      ------------------
-------------------
DFT GRID GENERATION
-------------------

General Integration Accuracy     IntAcc      ... 4.388
Radial Grid Type                 RadialGrid  ... OptM3 with GC (2021)
Angular Grid (max. ang.)         AngularGrid ... 4 (Lebedev-302)
Angular grid pruning method      GridPruning ... 4 (adaptive)
Weight generation scheme         WeightScheme... Becke
Basis function cutoff            BFCut       ... 1.0000e-11
Integration weight cutoff        WCut        ... 1.0000e-14
Angular grids for H and He will be reduced by one unit
Partially contracted basis set               ... off
Rotationally invariant grid construction     ... off

Total number of grid points                  ...    85991
Total number of batches                      ...     1347
Average number of points per batch           ...       63
Average number of grid points per atom       ...     6615
Time for grid setup =    0.606 sec

--------------------
COSX GRID GENERATION
--------------------

GRIDX 1
-------
General Integration Accuracy     IntAcc      ... 3.816
Radial Grid Type                 RadialGrid  ... OptM3 with GC (2021)
Angular Grid (max. ang.)         AngularGrid ... 1 (Lebedev-50)
Angular grid pruning method      GridPruning ... 4 (adaptive)
Weight generation scheme         WeightScheme... Becke
Basis function cutoff            BFCut       ... 1.0000e-11
Integration weight cutoff        WCut        ... 1.0000e-14
Angular grids for H and He will be reduced by one unit
Partially contracted basis set               ... on
Rotationally invariant grid construction     ... off

Total number of grid points                  ...    10578
Total number of batches                      ...      173
Average number of points per batch           ...       61
Average number of grid points per atom       ...      814
UseSFitting                                  ... on

GRIDX 2
-------
General Integration Accuracy     IntAcc      ... 4.020
Radial Grid Type                 RadialGrid  ... OptM3 with GC (2021)
Angular Grid (max. ang.)         AngularGrid ... 2 (Lebedev-110)
Angular grid pruning method      GridPruning ... 4 (adaptive)
Weight generation scheme         WeightScheme... Becke
Basis function cutoff            BFCut       ... 1.0000e-11
Integration weight cutoff        WCut        ... 1.0000e-14
Angular grids for H and He will be reduced by one unit
Partially contracted basis set               ... on
Rotationally invariant grid construction     ... off

Total number of grid points                  ...    27905
Total number of batches                      ...      442
Average number of points per batch           ...       63
Average number of grid points per atom       ...     2147
UseSFitting                                  ... on

GRIDX 3
-------
General Integration Accuracy     IntAcc      ... 4.338
Radial Grid Type                 RadialGrid  ... OptM3 with GC (2021)
Angular Grid (max. ang.)         AngularGrid ... 3 (Lebedev-194)
Angular grid pruning method      GridPruning ... 4 (adaptive)
Weight generation scheme         WeightScheme... Becke
Basis function cutoff            BFCut       ... 1.0000e-11
Integration weight cutoff        WCut        ... 1.0000e-14
Angular grids for H and He will be reduced by one unit
Partially contracted basis set               ... on
Rotationally invariant grid construction     ... off

Total number of grid points                  ...    59525
Total number of batches                      ...      938
Average number of points per batch           ...       63
Average number of grid points per atom       ...     4579
UseSFitting                                  ... on

Time for X-Grid setup             =    0.910 sec

--------------
SCF ITERATIONS
--------------
ITER       Energy         Delta-E        Max-DP      RMS-DP      [F,P]     Damp
               ***  Starting incremental Fock matrix formation  ***
  0   -743.2188475088   0.000000000000302.70024584  1.45808830  0.4163071 0.7000
  1   -745.0036629614  -1.784815452624217.52810997  1.02815797  0.1476605 0.7000
                               ***Turning on DIIS***
  2   -745.3566356103  -0.352972648862453.46512027  2.07270243  0.0660017 0.0000
  3   -745.6526635011  -0.296027890794190.63935520  0.63945898  0.1558082 0.7000
  4   -745.8776580048  -0.224994503686199.01558197  0.66508762  0.1144437 0.7000
  5   -746.0484770560  -0.170819051199535.38479017  1.78699200  0.0801407 0.0000
  6   -746.3367895482  -0.28831249217531.89303150  0.14580148  0.0086615 0.0000
  7   -746.3458768639  -0.00908731577531.50877748  0.12234795  0.0055513 0.0000
  8   -746.3483947935  -0.00251792961622.96392184  0.08877804  0.0035410 0.0000
  9   -746.3493184673  -0.00092367375022.52920192  0.08682413  0.0020673 0.0000
 10   -746.3496737677  -0.00035530038512.60300351  0.04957227  0.0013020 0.0000
 11   -746.3497976098  -0.000123842157 8.49622367  0.03403270  0.0012076 0.0000
 12   -746.3498675311  -0.0000699212211063.15215198  3.59579193  0.0003392 0.0000
               *** Restarting incremental Fock matrix formation ***
                                   *** Resetting DIIS ***
 13   -746.3889094124  -0.039041881374 0.06518099  0.00082932  0.0137760 0.0000
 14   -746.3949194314  -0.006010018990 0.11512703  0.00084356  0.0147410 0.0000
 15   -746.4001121851  -0.005192753647 0.09572085  0.00065673  0.0048170 0.0000
 16   -746.4009268731  -0.000814688050 0.06858485  0.00046511  0.0010240 0.0000
 17   -746.4009998539  -0.000072980781 0.14555317  0.00096543  0.0006582 0.0000
 18   -746.4010672898  -0.000067435950 0.02936446  0.00019310  0.0004954 0.0000
 19   -746.4010901653  -0.000022875485 0.01988562  0.00013296  0.0002441 0.0000
 20   -746.4011058605  -0.000015695152 0.00389755  0.00003274  0.0002029 0.0000
 21   -746.4011121073  -0.000006246843 0.00445862  0.00005513  0.0000719 0.0000
 22   -746.4011223262  -0.000010218905 0.00589994  0.00007352  0.0001032 0.0000
 23   -746.4011360992  -0.000013772968 0.00257206  0.00003045  0.0000815 0.0000
 24   -746.4011304482   0.000005650989 0.00039736  0.00000339  0.0000784 0.0000
 25   -746.4011308891  -0.000000440870 0.00337277  0.00004204  0.0000787 0.0000
 26   -746.4011229842   0.000007904919 0.00216918  0.00002800  0.0000945 0.0000
 27   -746.4011281069  -0.000005122747 0.00234533  0.00002805  0.0000789 0.0000

 WARNING: the maximum gradient error descreased on average only by a factor   1.1
          during the last 20 iterations

                      *** Initiating the TRAH-SCF procedure ***


TRAH GRIDX
----------

General Integration Accuracy     IntAcc      ... 3.067
Radial Grid Type                 RadialGrid  ... OptM3 with GC (2021)
Angular Grid (max. ang.)         AngularGrid ... 1 (Lebedev-50)
Angular grid pruning method      GridPruning ... 4 (adaptive)
Weight generation scheme         WeightScheme... Becke
Basis function cutoff            BFCut       ... 1.0000e-11
Integration weight cutoff        WCut        ... 1.0000e-14
Angular grids for H and He will be reduced by one unit
Partially contracted basis set               ... on
Rotationally invariant grid construction     ... off

Total number of grid points                  ...     6050
Total number of batches                      ...       99
Average number of points per batch           ...       61
Average number of grid points per atom       ...      465


TRAH GRID
---------

General Integration Accuracy     IntAcc      ... 3.467
Radial Grid Type                 RadialGrid  ... OptM3 with GC (2021)
Angular Grid (max. ang.)         AngularGrid ... 1 (Lebedev-50)
Angular grid pruning method      GridPruning ... 4 (adaptive)
Weight generation scheme         WeightScheme... Becke
Basis function cutoff            BFCut       ... 1.0000e-11
Integration weight cutoff        WCut        ... 1.0000e-14
Angular grids for H and He will be reduced by one unit
Partially contracted basis set               ... off
Rotationally invariant grid construction     ... off

Total number of grid points                  ...    16721
Total number of batches                      ...      266
Average number of points per batch           ...       62
Average number of grid points per atom       ...     1286

 --------------------------------------------------------------------------------------------
   Iter.        energy            ||Error||_2        Shift      TRadius  Mac/Mic        Rej.
 --------------------------------------------------------------------------------------------
    0       -746.401133078556     1.169198e-03                     0.400 (TRAH MAcro)   No
    0     dE    -8.921387e-07     3.148252e-03    -8.9214e-07      0.001 (TRAH MIcro)
    0     dE    -4.393075e-04     1.777891e-02    -1.2812e-03      0.400 (TRAH MIcro)
    0     dE    -5.897170e-04     3.843798e-03    -2.2182e-03      0.400 (TRAH MIcro)
    0     dE    -5.983346e-04     1.543846e-03    -2.2698e-03      0.400 (TRAH MIcro)
    0     dE    -6.012318e-04     1.467816e-03    -2.2876e-03      0.400 (TRAH MIcro)
    0     dE    -6.033278e-04     9.962945e-04    -2.3013e-03      0.400 (TRAH MIcro)
    0     dE    -6.039101e-04     6.481392e-04    -2.3049e-03      0.400 (TRAH MIcro)
    0     dE    -6.040932e-04     2.841111e-04    -2.3057e-03      0.400 (TRAH MIcro)
    0     dE    -6.041216e-04     8.987974e-05    -2.3058e-03      0.400 (TRAH MIcro)
    1       -746.401445656177     1.172498e-02                     0.400 (TRAH MAcro)   No
    1     dE    -6.331889e-05     1.043903e-02    -6.3317e-05      0.005 (TRAH MIcro)
    1     dE    -1.179286e-04     3.934546e-03    -1.1789e-04      0.017 (TRAH MIcro)
    1     dE    -1.359791e-04     3.416376e-03    -1.3590e-04      0.024 (TRAH MIcro)
    1     dE    -1.452693e-04     2.555080e-03    -1.4512e-04      0.032 (TRAH MIcro)
    1     dE    -1.723796e-04     4.253293e-03    -1.7102e-04      0.089 (TRAH MIcro)
    1     dE    -1.895862e-04     3.853092e-03    -1.8645e-04      0.130 (TRAH MIcro)
    1     dE    -2.039159e-04     2.336379e-03    -1.9863e-04      0.163 (TRAH MIcro)
    1     dE    -2.117662e-04     1.569019e-03    -2.0500e-04      0.182 (TRAH MIcro)
    1     dE    -2.135511e-04     1.001054e-03    -2.0642e-04      0.186 (TRAH MIcro)
    2       -746.401658695688     1.976808e-03                     0.480 (TRAH MAcro)   No
    2     dE    -8.940315e-07     1.723292e-02    -8.9403e-07      0.000 (TRAH MIcro)
    2     dE    -5.386327e-06     2.325199e-03    -5.3862e-06      0.005 (TRAH MIcro)
    2     dE    -8.666377e-06     2.988294e-03    -8.6654e-06      0.010 (TRAH MIcro)
    2     dE    -9.544822e-06     2.760910e-03    -9.5433e-06      0.013 (TRAH MIcro)
    2     dE    -1.068209e-05     1.179988e-03    -1.0678e-05      0.019 (TRAH MIcro)
    2     dE    -1.188531e-05     1.600283e-03    -1.1877e-05      0.026 (TRAH MIcro)
    2     dE    -1.364844e-05     1.576554e-03    -1.3627e-05      0.040 (TRAH MIcro)
    2     dE    -1.508097e-05     1.609103e-03    -1.5041e-05      0.052 (TRAH MIcro)
    2     dE    -1.829118e-05     2.882983e-03    -1.8175e-05      0.080 (TRAH MIcro)
    2     dE    -1.960562e-05     7.891416e-04    -1.9441e-05      0.092 (TRAH MIcro)
    2     dE    -1.977885e-05     6.439430e-04    -1.9607e-05      0.094 (TRAH MIcro)
    2     dE    -1.988095e-05     3.353833e-04    -1.9704e-05      0.095 (TRAH MIcro)
    2     dE    -1.991556e-05     4.275242e-04    -1.9737e-05      0.095 (TRAH MIcro)
    2     dE    -2.003642e-05     4.570674e-04    -1.9853e-05      0.096 (TRAH MIcro)
    3       -746.401679049833     5.493298e-04                           (NR   MAcro)
    3     dE    -1.843143e-07     3.378228e-04                           (NR   MIcro)
    3     dE    -2.900933e-07     1.479590e-04                           (NR   MIcro)
    3     dE    -3.045212e-07     1.007182e-04                           (NR   MIcro)
    3     dE    -3.161648e-07     8.940768e-05                           (NR   MIcro)
    3     dE    -3.358958e-07     1.474653e-04                           (NR   MIcro)
    3     dE    -3.507493e-07     1.476479e-04                           (NR   MIcro)
    3     dE    -3.779988e-07     1.526365e-04                           (NR   MIcro)
    3     dE    -4.070074e-07     1.764837e-04                           (NR   MIcro)
    3     dE    -4.385287e-07     9.619699e-05                           (NR   MIcro)
    3     dE    -4.454295e-07     5.738983e-05                           (NR   MIcro)
    3     dE    -4.475856e-07     3.487082e-05                           (NR   MIcro)
    3     dE    -4.480648e-07     1.948354e-05                           (NR   MIcro)
    3     dE    -4.482397e-07     6.678672e-06                           (NR   MIcro)
    3     dE    -4.482834e-07     5.014072e-06                           (NR   MIcro)
    3     dE    -4.482928e-07     3.834207e-06                           (NR   MIcro)
    4       -746.401679462423     1.115418e-05                           (NR   MAcro)
    4     dE    -9.377369e-11     6.206017e-06                           (NR   MIcro)
    4     dE    -1.529253e-10     3.408381e-06                           (NR   MIcro)
    4     dE    -1.679897e-10     3.596451e-06                           (NR   MIcro)
    4     dE    -2.201985e-10     7.796562e-06                           (NR   MIcro)
    4     dE    -2.863716e-10     7.305094e-06                           (NR   MIcro)
    4     dE    -3.954187e-10     7.320998e-06                           (NR   MIcro)
    4     dE    -4.342682e-10     4.958323e-06                           (NR   MIcro)
    4     dE    -4.609555e-10     2.826370e-06                           (NR   MIcro)
    4     dE    -4.719015e-10     2.306657e-06                           (NR   MIcro)
    4     dE    -4.753064e-10     1.191771e-06                           (NR   MIcro)
    4     dE    -4.765312e-10     4.597494e-07                           (NR   MIcro)
    5       -746.401679460906     5.419751e-07                           (NR   MAcro)

               *****************************************************
               *                     SUCCESS                       *
               *           SCF CONVERGED AFTER  92 CYCLES          *
               *****************************************************

Old exchange energy                            =    -17.403912823 Eh
New exchange energy                            =    -17.403921463 Eh
Exchange energy change after final integration =     -0.000008640 Eh
Total energy after final integration           =   -746.401688101 Eh
Final COS-X integration done in                =     5.014 sec

----------------
TOTAL SCF ENERGY
----------------

Total Energy       :         -746.40168810 Eh          -20310.62251 eV

Components:
Nuclear Repulsion  :          755.75550404 Eh           20565.15278 eV
Electronic Energy  :        -1502.15719214 Eh          -40875.77528 eV
One Electron Energy:        -2558.29510293 Eh          -69614.74890 eV
Two Electron Energy:         1056.13791079 Eh           28738.97361 eV
Max COSX asymmetry :            0.00000871 Eh               0.00024 eV

Virial components:
Potential Energy   :        -1444.11069140 Eh          -39296.24970 eV
Kinetic Energy     :          697.70900330 Eh           18985.62719 eV
Virial Ratio       :            2.06978939


DFT components:
N(Alpha)           :       50.000008594515 electrons
N(Beta)            :       49.000180402383 electrons
N(Total)           :       99.000188996898 electrons
E(X)               :      -69.689997959522 Eh       
E(C)               :       -4.079305292087 Eh       
E(XC)              :      -73.769303251609 Eh       
DFET-embed. en.    :        0.000000000000 Eh       

---------------
SCF CONVERGENCE
---------------

  Last Energy change         ...    1.5166e-09  Tolerance :   1.0000e-08
  Last Orbital Gradient      ...    5.4198e-07  Tolerance :   1.0000e-05
  Last Orbital Rotation      ...    5.4539e-04

             **** THE GBW FILE WAS UPDATED (WCO6-.gbw) ****
             **** DENSITY WCO6-.scfp WAS UPDATED ****
             **** ENERGY FILE WAS UPDATED (WCO6-.en.tmp) ****
----------------------
UHF SPIN CONTAMINATION
----------------------

Warning: in a DFT calculation there is little theoretical justification to 
         calculate <S**2> as in Hartree-Fock theory. We will do it anyways
         but you should keep in mind that the values have only limited relevance

Expectation value of <S**2>     :     0.757649
Ideal value S*(S+1) for S=0.5   :     0.750000
Deviation                       :     0.007649

             **** THE GBW FILE WAS UPDATED (WCO6-.gbw) ****
             **** DENSITY WCO6-.scfp WAS UPDATED ****
----------------
ORBITAL ENERGIES
----------------
                 SPIN UP ORBITALS
  NO   OCC          E(Eh)            E(eV) 
   0   1.0000     -19.069756      -518.9144 
   1   1.0000     -19.069719      -518.9134 
   2   1.0000     -19.069695      -518.9128 
   3   1.0000     -19.069674      -518.9122 
   4   1.0000     -19.069508      -518.9077 
   5   1.0000     -19.069440      -518.9058 
   6   1.0000     -10.139441      -275.9082 
   7   1.0000     -10.139406      -275.9073 
   8   1.0000     -10.139393      -275.9069 
   9   1.0000     -10.139343      -275.9055 
  10   1.0000     -10.139215      -275.9021 
  11   1.0000     -10.139085      -275.8985 
  12   1.0000      -2.791046       -75.9482 
  13   1.0000      -1.439805       -39.1791 
  14   1.0000      -1.439802       -39.1790 
  15   1.0000      -1.439490       -39.1705 
  16   1.0000      -0.989996       -26.9392 
  17   1.0000      -0.989465       -26.9247 
  18   1.0000      -0.989440       -26.9240 
  19   1.0000      -0.989311       -26.9205 
  20   1.0000      -0.989272       -26.9195 
  21   1.0000      -0.989149       -26.9161 
  22   1.0000      -0.443440       -12.0666 
  23   1.0000      -0.416729       -11.3398 
  24   1.0000      -0.416614       -11.3366 
  25   1.0000      -0.412878       -11.2350 
  26   1.0000      -0.412799       -11.2328 
  27   1.0000      -0.412657       -11.2290 
  28   1.0000      -0.354740        -9.6530 
  29   1.0000      -0.334600        -9.1049 
  30   1.0000      -0.332329        -9.0431 
  31   1.0000      -0.332242        -9.0408 
  32   1.0000      -0.328192        -8.9306 
  33   1.0000      -0.326249        -8.8777 
  34   1.0000      -0.326219        -8.8769 
  35   1.0000      -0.320764        -8.7284 
  36   1.0000      -0.320705        -8.7268 
  37   1.0000      -0.318790        -8.6747 
  38   1.0000      -0.316866        -8.6224 
  39   1.0000      -0.316781        -8.6201 
  40   1.0000      -0.314532        -8.5589 
  41   1.0000      -0.314439        -8.5563 
  42   1.0000      -0.314233        -8.5507 
  43   1.0000      -0.255759        -6.9596 
  44   1.0000      -0.254985        -6.9385 
  45   1.0000      -0.254940        -6.9373 
  46   1.0000      -0.083086        -2.2609 
  47   1.0000      -0.079147        -2.1537 
  48   1.0000      -0.079064        -2.1514 
  49   1.0000       0.049021         1.3339 
  50   0.0000       0.090963         2.4752 
  51   0.0000       0.090988         2.4759 
  52   0.0000       0.110125         2.9967 
  53   0.0000       0.110305         3.0015 
  54   0.0000       0.117383         3.1941 
  55   0.0000       0.127809         3.4779 
  56   0.0000       0.152247         4.1428 
  57   0.0000       0.152364         4.1460 
  58   0.0000       0.156823         4.2674 
  59   0.0000       0.156837         4.2678 
  60   0.0000       0.157038         4.2732 
  61   0.0000       0.161718         4.4006 
  62   0.0000       0.163275         4.4429 
  63   0.0000       0.163301         4.4437 
  64   0.0000       0.187820         5.1108 
  65   0.0000       0.188547         5.1306 
  66   0.0000       0.188594         5.1319 
  67   0.0000       0.200350         5.4518 
  68   0.0000       0.200889         5.4665 
  69   0.0000       0.200906         5.4669 
  70   0.0000       0.212486         5.7820 
  71   0.0000       0.214905         5.8479 
  72   0.0000       0.214961         5.8494 
  73   0.0000       0.216084         5.8799 
  74   0.0000       0.233655         6.3581 
  75   0.0000       0.234055         6.3690 
  76   0.0000       0.234065         6.3692 
  77   0.0000       0.243618         6.6292 
  78   0.0000       0.243646         6.6299 
  79   0.0000       0.272501         7.4151 
  80   0.0000       0.272574         7.4171 
  81   0.0000       0.272606         7.4180 
  82   0.0000       0.294995         8.0272 
  83   0.0000       0.296554         8.0696 
  84   0.0000       0.296585         8.0705 
  85   0.0000       0.296998         8.0817 
  86   0.0000       0.313287         8.5250 
  87   0.0000       0.313366         8.5271 
  88   0.0000       0.317634         8.6433 
  89   0.0000       0.365946         9.9579 
  90   0.0000       0.367133         9.9902 
  91   0.0000       0.367192         9.9918 
  92   0.0000       0.400432        10.8963 
  93   0.0000       0.400443        10.8966 
  94   0.0000       0.406408        11.0589 
  95   0.0000       0.407732        11.0950 
  96   0.0000       0.407749        11.0954 
  97   0.0000       0.422759        11.5039 
  98   0.0000       0.423814        11.5326 
  99   0.0000       0.423853        11.5336 
 100   0.0000       0.433573        11.7981 
 101   0.0000       0.433603        11.7989 
 102   0.0000       0.434393        11.8204 
 103   0.0000       0.452151        12.3037 
 104   0.0000       0.484502        13.1840 
 105   0.0000       0.498315        13.5598 
 106   0.0000       0.498401        13.5622 
 107   0.0000       0.513372        13.9696 
 108   0.0000       0.513396        13.9702 
 109   0.0000       0.524611        14.2754 
 110   0.0000       0.525547        14.3009 
 111   0.0000       0.525598        14.3023 
 112   0.0000       0.566484        15.4148 
 113   0.0000       0.580493        15.7960 
 114   0.0000       0.581700        15.8289 
 115   0.0000       0.581791        15.8313 
 116   0.0000       0.586691        15.9647 
 117   0.0000       0.586742        15.9661 
 118   0.0000       0.587102        15.9759 
 119   0.0000       0.595809        16.2128 
 120   0.0000       0.596226        16.2241 
 121   0.0000       0.596262        16.2251 
 122   0.0000       0.597940        16.2708 
 123   0.0000       0.598627        16.2895 
 124   0.0000       0.598653        16.2902 
 125   0.0000       0.614560        16.7230 
 126   0.0000       0.614613        16.7245 
 127   0.0000       0.636693        17.3253 
 128   0.0000       0.636945        17.3321 
 129   0.0000       0.636978        17.3330 
 130   0.0000       0.667315        18.1586 
 131   0.0000       0.668002        18.1773 
 132   0.0000       0.668009        18.1774 
 133   0.0000       0.680367        18.5137 
 134   0.0000       0.685711        18.6591 
 135   0.0000       0.707585        19.2544 
 136   0.0000       0.707607        19.2550 
 137   0.0000       0.707857        19.2618 
 138   0.0000       0.712984        19.4013 
 139   0.0000       0.713000        19.4017 
 140   0.0000       0.713040        19.4028 
 141   0.0000       0.725480        19.7413 
 142   0.0000       0.726137        19.7592 
 143   0.0000       0.726161        19.7598 
 144   0.0000       0.757538        20.6137 
 145   0.0000       0.757626        20.6160 
 146   0.0000       0.758522        20.6404 
 147   0.0000       0.769174        20.9303 
 148   0.0000       0.769247        20.9323 
 149   0.0000       0.785477        21.3739 
 150   0.0000       0.785532        21.3754 
 151   0.0000       0.785626        21.3780 
 152   0.0000       0.795803        21.6549 
 153   0.0000       0.808249        21.9936 
 154   0.0000       0.808313        21.9953 
 155   0.0000       0.813678        22.1413 
 156   0.0000       0.814903        22.1746 
 157   0.0000       0.814942        22.1757 
 158   0.0000       0.850309        23.1381 
 159   0.0000       0.851209        23.1626 
 160   0.0000       0.851331        23.1659 
 161   0.0000       0.883406        24.0387 
 162   0.0000       0.883551        24.0427 
 163   0.0000       0.908933        24.7333 
 164   0.0000       0.909241        24.7417 
 165   0.0000       0.909400        24.7460 
 166   0.0000       0.931056        25.3353 
 167   0.0000       1.016662        27.6648 
 168   0.0000       1.016877        27.6706 
 169   0.0000       1.071510        29.1573 
 170   0.0000       1.071549        29.1583 
 171   0.0000       1.072836        29.1934 
 172   0.0000       1.081143        29.4194 
 173   0.0000       1.081152        29.4196 
 174   0.0000       1.087756        29.5993 
 175   0.0000       1.087878        29.6027 
 176   0.0000       1.087973        29.6053 
 177   0.0000       1.094273        29.7767 
 178   0.0000       1.100166        29.9370 
 179   0.0000       1.116841        30.3908 
 180   0.0000       1.117214        30.4009 
 181   0.0000       1.117237        30.4016 
 182   0.0000       1.131784        30.7974 
 183   0.0000       1.134243        30.8643 
 184   0.0000       1.134316        30.8663 
 185   0.0000       1.146947        31.2100 
 186   0.0000       1.160984        31.5920 
 187   0.0000       1.161079        31.5946 
 188   0.0000       1.195475        32.5305 
 189   0.0000       1.195529        32.5320 
 190   0.0000       1.197648        32.5897 
 191   0.0000       1.220346        33.2073 
 192   0.0000       1.378542        37.5120 
 193   0.0000       1.378551        37.5123 
 194   0.0000       1.379453        37.5368 
 195   0.0000       1.398006        38.0417 
 196   0.0000       1.399334        38.0778 
 197   0.0000       1.399481        38.0818 
 198   0.0000       1.547038        42.0971 
 199   0.0000       1.548092        42.1257 
 200   0.0000       1.548138        42.1270 
 201   0.0000       1.576087        42.8875 
 202   0.0000       1.576155        42.8894 
 203   0.0000       1.654530        45.0220 
 204   0.0000       1.656218        45.0680 
 205   0.0000       1.656269        45.0694 
 206   0.0000       1.658682        45.1350 
 207   0.0000       1.658857        45.1398 
 208   0.0000       1.658879        45.1404 
 209   0.0000       1.661473        45.2110 
 210   0.0000       1.661546        45.2130 
 211   0.0000       1.661567        45.2135 
 212   0.0000       1.661593        45.2142 
 213   0.0000       1.661847        45.2212 
 214   0.0000       1.662584        45.2412 
 215   0.0000       1.713633        46.6303 
 216   0.0000       1.714608        46.6569 
 217   0.0000       1.714740        46.6605 
 218   0.0000       1.731379        47.1132 
 219   0.0000       1.731910        47.1277 
 220   0.0000       1.731922        47.1280 
 221   0.0000       1.921617        52.2899 
 222   0.0000       1.922137        52.3040 
 223   0.0000       1.922235        52.3067 
 224   0.0000       1.929478        52.5038 
 225   0.0000       1.930333        52.5270 
 226   0.0000       1.930411        52.5292 
 227   0.0000       1.947006        52.9807 
 228   0.0000       1.947011        52.9809 
 229   0.0000       1.947673        52.9989 
 230   0.0000       1.993208        54.2379 
 231   0.0000       2.033256        55.3277 
 232   0.0000       2.033296        55.3288 
 233   0.0000       2.033735        55.3407 
 234   0.0000       2.057221        55.9798 
 235   0.0000       2.057305        55.9821 
 236   0.0000       2.057544        55.9886 
 237   0.0000       2.112104        57.4733 
 238   0.0000       2.112220        57.4764 
 239   0.0000       2.113097        57.5003 
 240   0.0000       2.129791        57.9546 
 241   0.0000       2.130550        57.9752 
 242   0.0000       2.130680        57.9788 
 243   0.0000       2.162501        58.8446 
 244   0.0000       2.162788        58.8525 
 245   0.0000       2.163752        58.8787 
 246   0.0000       2.196372        59.7663 
 247   0.0000       2.196393        59.7669 
 248   0.0000       2.207530        60.0699 
 249   0.0000       2.208211        60.0885 
 250   0.0000       2.208343        60.0921 
 251   0.0000       2.208432        60.0945 
 252   0.0000       2.334597        63.5276 
 253   0.0000       2.334609        63.5279 
 254   0.0000       2.636864        71.7527 
 255   0.0000       2.717743        73.9535 
 256   0.0000       2.717843        73.9563 
 257   0.0000       2.943521        80.0973 
 258   0.0000       2.951993        80.3278 
 259   0.0000       2.952074        80.3300 
 260   0.0000       2.952220        80.3340 
 261   0.0000       2.958538        80.5059 
 262   0.0000       2.974098        80.9293 
 263   0.0000       2.974463        80.9393 
 264   0.0000       2.974500        80.9403 
 265   0.0000       2.980688        81.1086 
 266   0.0000       2.980810        81.1120 
 267   0.0000       2.996356        81.5350 
 268   0.0000       2.996449        81.5375 
 269   0.0000       3.029172        82.4279 
 270   0.0000       3.334367        90.7327 
 271   0.0000       3.334432        90.7345 
 272   0.0000       3.334720        90.7423 
 273   0.0000       3.338885        90.8557 
 274   0.0000       3.338922        90.8567 
 275   0.0000       3.339004        90.8589 
 276   0.0000       3.351051        91.1867 
 277   0.0000       3.351412        91.1966 
 278   0.0000       3.351468        91.1981 
 279   0.0000       3.400045        92.5199 
 280   0.0000       3.400111        92.5217 
 281   0.0000       3.400401        92.5296 
 282   0.0000       3.408428        92.7480 
 283   0.0000       3.408631        92.7536 
 284   0.0000       3.408658        92.7543 
 285   0.0000       3.955414       107.6323 
 286   0.0000       3.961423       107.7958 
 287   0.0000       3.961542       107.7990 
 288   0.0000       4.005513       108.9955 
 289   0.0000       4.005629       108.9987 
 290   0.0000       4.005760       109.0023 
 291   0.0000      69.632711      1894.8024 
 292   0.0000     576.354490     15683.4030 

                 SPIN DOWN ORBITALS
  NO   OCC          E(Eh)            E(eV) 
   0   1.0000     -19.068278      -518.8742 
   1   1.0000     -19.068240      -518.8732 
   2   1.0000     -19.068219      -518.8726 
   3   1.0000     -19.068195      -518.8720 
   4   1.0000     -19.068006      -518.8668 
   5   1.0000     -19.067936      -518.8649 
   6   1.0000     -10.137265      -275.8490 
   7   1.0000     -10.137230      -275.8480 
   8   1.0000     -10.137217      -275.8477 
   9   1.0000     -10.137166      -275.8463 
  10   1.0000     -10.137034      -275.8427 
  11   1.0000     -10.136907      -275.8393 
  12   1.0000      -2.793597       -76.0176 
  13   1.0000      -1.442930       -39.2641 
  14   1.0000      -1.442781       -39.2601 
  15   1.0000      -1.442777       -39.2600 
  16   1.0000      -0.987328       -26.8666 
  17   1.0000      -0.986825       -26.8529 
  18   1.0000      -0.986798       -26.8521 
  19   1.0000      -0.986668       -26.8486 
  20   1.0000      -0.986593       -26.8466 
  21   1.0000      -0.986470       -26.8432 
  22   1.0000      -0.437428       -11.9030 
  23   1.0000      -0.412214       -11.2169 
  24   1.0000      -0.412065       -11.2129 
  25   1.0000      -0.408808       -11.1242 
  26   1.0000      -0.408582       -11.1181 
  27   1.0000      -0.408409       -11.1134 
  28   1.0000      -0.351397        -9.5620 
  29   1.0000      -0.329015        -8.9530 
  30   1.0000      -0.328981        -8.9520 
  31   1.0000      -0.324837        -8.8393 
  32   1.0000      -0.322713        -8.7815 
  33   1.0000      -0.322573        -8.7776 
  34   1.0000      -0.318973        -8.6797 
  35   1.0000      -0.317470        -8.6388 
  36   1.0000      -0.313183        -8.5221 
  37   1.0000      -0.313001        -8.5172 
  38   1.0000      -0.312946        -8.5157 
  39   1.0000      -0.310646        -8.4531 
  40   1.0000      -0.310538        -8.4502 
  41   1.0000      -0.308420        -8.3925 
  42   1.0000      -0.308328        -8.3900 
  43   1.0000      -0.248465        -6.7611 
  44   1.0000      -0.248420        -6.7599 
  45   1.0000      -0.248026        -6.7491 
  46   1.0000      -0.077655        -2.1131 
  47   1.0000      -0.077633        -2.1125 
  48   1.0000      -0.074713        -2.0330 
  49   0.0000       0.095027         2.5858 
  50   0.0000       0.095081         2.5873 
  51   0.0000       0.103018         2.8033 
  52   0.0000       0.119951         3.2640 
  53   0.0000       0.124382         3.3846 
  54   0.0000       0.124522         3.3884 
  55   0.0000       0.128284         3.4908 
  56   0.0000       0.157155         4.2764 
  57   0.0000       0.157167         4.2767 
  58   0.0000       0.157962         4.2984 
  59   0.0000       0.163064         4.4372 
  60   0.0000       0.163096         4.4381 
  61   0.0000       0.164374         4.4729 
  62   0.0000       0.169329         4.6077 
  63   0.0000       0.169378         4.6090 
  64   0.0000       0.188500         5.1293 
  65   0.0000       0.188521         5.1299 
  66   0.0000       0.189504         5.1567 
  67   0.0000       0.200581         5.4581 
  68   0.0000       0.200671         5.4605 
  69   0.0000       0.200690         5.4610 
  70   0.0000       0.216249         5.8844 
  71   0.0000       0.216390         5.8883 
  72   0.0000       0.216419         5.8891 
  73   0.0000       0.218780         5.9533 
  74   0.0000       0.233098         6.3429 
  75   0.0000       0.233673         6.3586 
  76   0.0000       0.233683         6.3588 
  77   0.0000       0.244433         6.6514 
  78   0.0000       0.244483         6.6527 
  79   0.0000       0.272052         7.4029 
  80   0.0000       0.272676         7.4199 
  81   0.0000       0.272720         7.4211 
  82   0.0000       0.295767         8.0482 
  83   0.0000       0.296109         8.0575 
  84   0.0000       0.296136         8.0583 
  85   0.0000       0.300781         8.1847 
  86   0.0000       0.314183         8.5494 
  87   0.0000       0.314255         8.5513 
  88   0.0000       0.318881         8.6772 
  89   0.0000       0.367658        10.0045 
  90   0.0000       0.367679        10.0051 
  91   0.0000       0.367721        10.0062 
  92   0.0000       0.400465        10.8972 
  93   0.0000       0.400484        10.8977 
  94   0.0000       0.409166        11.1340 
  95   0.0000       0.409203        11.1350 
  96   0.0000       0.410986        11.1835 
  97   0.0000       0.424648        11.5553 
  98   0.0000       0.424687        11.5563 
  99   0.0000       0.425810        11.5869 
 100   0.0000       0.434414        11.8210 
 101   0.0000       0.435960        11.8631 
 102   0.0000       0.435964        11.8632 
 103   0.0000       0.455190        12.3864 
 104   0.0000       0.487199        13.2574 
 105   0.0000       0.498846        13.5743 
 106   0.0000       0.498953        13.5772 
 107   0.0000       0.514549        14.0016 
 108   0.0000       0.514577        14.0024 
 109   0.0000       0.525885        14.3101 
 110   0.0000       0.525910        14.3107 
 111   0.0000       0.527035        14.3413 
 112   0.0000       0.566489        15.4150 
 113   0.0000       0.584089        15.8939 
 114   0.0000       0.584178        15.8963 
 115   0.0000       0.586823        15.9683 
 116   0.0000       0.587312        15.9816 
 117   0.0000       0.587352        15.9827 
 118   0.0000       0.587701        15.9922 
 119   0.0000       0.596233        16.2243 
 120   0.0000       0.596269        16.2253 
 121   0.0000       0.596876        16.2418 
 122   0.0000       0.597540        16.2599 
 123   0.0000       0.598954        16.2984 
 124   0.0000       0.598969        16.2988 
 125   0.0000       0.615898        16.7594 
 126   0.0000       0.615968        16.7614 
 127   0.0000       0.638985        17.3877 
 128   0.0000       0.639182        17.3930 
 129   0.0000       0.639241        17.3946 
 130   0.0000       0.668846        18.2002 
 131   0.0000       0.668879        18.2011 
 132   0.0000       0.670364        18.2415 
 133   0.0000       0.681200        18.5364 
 134   0.0000       0.686755        18.6876 
 135   0.0000       0.707728        19.2583 
 136   0.0000       0.708870        19.2893 
 137   0.0000       0.708928        19.2909 
 138   0.0000       0.713399        19.4126 
 139   0.0000       0.713481        19.4148 
 140   0.0000       0.715987        19.4830 
 141   0.0000       0.726603        19.7719 
 142   0.0000       0.726625        19.7725 
 143   0.0000       0.727396        19.7935 
 144   0.0000       0.758849        20.6493 
 145   0.0000       0.760945        20.7064 
 146   0.0000       0.761091        20.7103 
 147   0.0000       0.770414        20.9640 
 148   0.0000       0.770492        20.9662 
 149   0.0000       0.785640        21.3783 
 150   0.0000       0.787053        21.4168 
 151   0.0000       0.787096        21.4180 
 152   0.0000       0.798922        21.7398 
 153   0.0000       0.810046        22.0425 
 154   0.0000       0.810086        22.0436 
 155   0.0000       0.817506        22.2455 
 156   0.0000       0.817536        22.2463 
 157   0.0000       0.818245        22.2656 
 158   0.0000       0.852253        23.1910 
 159   0.0000       0.852376        23.1943 
 160   0.0000       0.852536        23.1987 
 161   0.0000       0.885403        24.0931 
 162   0.0000       0.885592        24.0982 
 163   0.0000       0.910239        24.7689 
 164   0.0000       0.910415        24.7737 
 165   0.0000       0.910948        24.7882 
 166   0.0000       0.932551        25.3760 
 167   0.0000       1.017024        27.6746 
 168   0.0000       1.017250        27.6808 
 169   0.0000       1.073461        29.2104 
 170   0.0000       1.075828        29.2748 
 171   0.0000       1.075859        29.2756 
 172   0.0000       1.082544        29.4575 
 173   0.0000       1.082567        29.4581 
 174   0.0000       1.089739        29.6533 
 175   0.0000       1.089838        29.6560 
 176   0.0000       1.090784        29.6817 
 177   0.0000       1.095705        29.8156 
 178   0.0000       1.102042        29.9881 
 179   0.0000       1.118880        30.4463 
 180   0.0000       1.118922        30.4474 
 181   0.0000       1.121376        30.5142 
 182   0.0000       1.135539        30.8996 
 183   0.0000       1.135604        30.9013 
 184   0.0000       1.139192        30.9990 
 185   0.0000       1.149254        31.2728 
 186   0.0000       1.163787        31.6683 
 187   0.0000       1.163897        31.6713 
 188   0.0000       1.198153        32.6034 
 189   0.0000       1.202852        32.7313 
 190   0.0000       1.202926        32.7333 
 191   0.0000       1.218518        33.1576 
 192   0.0000       1.377383        37.4805 
 193   0.0000       1.379000        37.5245 
 194   0.0000       1.379040        37.5256 
 195   0.0000       1.401835        38.1459 
 196   0.0000       1.402331        38.1594 
 197   0.0000       1.402458        38.1628 
 198   0.0000       1.548851        42.1464 
 199   0.0000       1.548885        42.1473 
 200   0.0000       1.549817        42.1727 
 201   0.0000       1.579965        42.9930 
 202   0.0000       1.580021        42.9946 
 203   0.0000       1.655587        45.0508 
 204   0.0000       1.658198        45.1219 
 205   0.0000       1.658256        45.1234 
 206   0.0000       1.659907        45.1684 
 207   0.0000       1.659969        45.1701 
 208   0.0000       1.662307        45.2337 
 209   0.0000       1.662958        45.2514 
 210   0.0000       1.663388        45.2631 
 211   0.0000       1.665299        45.3151 
 212   0.0000       1.665367        45.3169 
 213   0.0000       1.665652        45.3247 
 214   0.0000       1.665676        45.3254 
 215   0.0000       1.715440        46.6795 
 216   0.0000       1.715582        46.6834 
 217   0.0000       1.716621        46.7116 
 218   0.0000       1.733219        47.1633 
 219   0.0000       1.733245        47.1640 
 220   0.0000       1.733465        47.1700 
 221   0.0000       1.929268        52.4980 
 222   0.0000       1.929444        52.5029 
 223   0.0000       1.930950        52.5438 
 224   0.0000       1.937598        52.7247 
 225   0.0000       1.938306        52.7440 
 226   0.0000       1.938452        52.7480 
 227   0.0000       1.952772        53.1376 
 228   0.0000       1.954490        53.1844 
 229   0.0000       1.954516        53.1851 
 230   0.0000       2.000356        54.4324 
 231   0.0000       2.034980        55.3746 
 232   0.0000       2.038351        55.4664 
 233   0.0000       2.038364        55.4667 
 234   0.0000       2.059226        56.0344 
 235   0.0000       2.059322        56.0370 
 236   0.0000       2.063749        56.1575 
 237   0.0000       2.115420        57.5635 
 238   0.0000       2.115611        57.5687 
 239   0.0000       2.119295        57.6690 
 240   0.0000       2.132766        58.0355 
 241   0.0000       2.134982        58.0958 
 242   0.0000       2.135161        58.1007 
 243   0.0000       2.164081        58.8876 
 244   0.0000       2.164383        58.8959 
 245   0.0000       2.165970        58.9390 
 246   0.0000       2.200511        59.8789 
 247   0.0000       2.200515        59.8791 
 248   0.0000       2.209138        60.1137 
 249   0.0000       2.209819        60.1322 
 250   0.0000       2.209964        60.1362 
 251   0.0000       2.211556        60.1795 
 252   0.0000       2.338535        63.6348 
 253   0.0000       2.338540        63.6349 
 254   0.0000       2.637810        71.7785 
 255   0.0000       2.722214        74.0752 
 256   0.0000       2.722295        74.0774 
 257   0.0000       2.947764        80.2127 
 258   0.0000       2.956110        80.4398 
 259   0.0000       2.956244        80.4435 
 260   0.0000       2.956482        80.4500 
 261   0.0000       2.961486        80.5861 
 262   0.0000       2.978300        81.0437 
 263   0.0000       2.978739        81.0556 
 264   0.0000       2.978832        81.0581 
 265   0.0000       2.984915        81.2237 
 266   0.0000       2.985084        81.2283 
 267   0.0000       3.000634        81.6514 
 268   0.0000       3.000773        81.6552 
 269   0.0000       3.033476        82.5451 
 270   0.0000       3.335648        90.7676 
 271   0.0000       3.338691        90.8504 
 272   0.0000       3.338698        90.8506 
 273   0.0000       3.341684        90.9319 
 274   0.0000       3.341805        90.9352 
 275   0.0000       3.342167        90.9450 
 276   0.0000       3.353882        91.2638 
 277   0.0000       3.353924        91.2649 
 278   0.0000       3.356974        91.3479 
 279   0.0000       3.401278        92.5535 
 280   0.0000       3.404070        92.6295 
 281   0.0000       3.404153        92.6317 
 282   0.0000       3.411352        92.8276 
 283   0.0000       3.411367        92.8280 
 284   0.0000       3.414119        92.9029 
 285   0.0000       3.957466       107.6881 
 286   0.0000       3.963445       107.8508 
 287   0.0000       3.963581       107.8545 
 288   0.0000       4.007517       109.0501 
 289   0.0000       4.007641       109.0535 
 290   0.0000       4.007793       109.0576 
 291   0.0000      69.636639      1894.9093 
 292   0.0000     576.372440     15683.8914 

                    ********************************
                    * MULLIKEN POPULATION ANALYSIS *
                    ********************************

--------------------------------------------
MULLIKEN ATOMIC CHARGES AND SPIN POPULATIONS
--------------------------------------------
   0 W :   -2.497361    0.154822
   1 C :    0.526940    0.105592
   2 C :    0.526280    0.109159
   3 C :    0.526893    0.105628
   4 C :    0.526229    0.109069
   5 C :    0.526966    0.105506
   6 C :    0.526927    0.105507
   7 O :   -0.277255    0.033892
   8 O :   -0.276907    0.034396
   9 O :   -0.277039    0.034463
  10 O :   -0.277129    0.033909
  11 O :   -0.277278    0.034033
  12 O :   -0.277267    0.034026
Sum of atomic charges         :   -1.0000000
Sum of atomic spin populations:    1.0000000

-----------------------------------------------------
MULLIKEN REDUCED ORBITAL CHARGES AND SPIN POPULATIONS
-----------------------------------------------------
CHARGE
  0 W s       :     2.926608  s :     2.926608
      pz      :     2.537159  p :     7.681631
      px      :     2.578639
      py      :     2.565833
      dz2     :     0.977211  d :     5.815388
      dxz     :     1.279559
      dyz     :     1.292175
      dx2y2   :     0.977052
      dxy     :     1.289392
      f0      :     0.023793  f :     0.073734
      f+1     :     0.008468
      f-1     :     0.009406
      f+2     :     0.002734
      f-2     :     0.000086
      f+3     :     0.014920
      f-3     :     0.014327
  1 C s       :     3.255423  s :     3.255423
      pz      :     0.605697  p :     2.144143
      px      :     0.931018
      py      :     0.607429
      dz2     :     0.002700  d :     0.073494
      dxz     :     0.028589
      dyz     :    -0.002647
      dx2y2   :     0.015959
      dxy     :     0.028893
  2 C s       :     3.255012  s :     3.255012
      pz      :     0.596955  p :     2.144742
      px      :     0.615582
      py      :     0.932205
      dz2     :     0.002294  d :     0.073965
      dxz     :    -0.002972
      dyz     :     0.028723
      dx2y2   :     0.016209
      dxy     :     0.029711
  3 C s       :     3.255566  s :     3.255566
      pz      :     0.605641  p :     2.144070
      px      :     0.931016
      py      :     0.607414
      dz2     :     0.002696  d :     0.073471
      dxz     :     0.028541
      dyz     :    -0.002644
      dx2y2   :     0.015971
      dxy     :     0.028907
  4 C s       :     3.255084  s :     3.255084
      pz      :     0.596950  p :     2.144704
      px      :     0.615443
      py      :     0.932311
      dz2     :     0.002294  d :     0.073983
      dxz     :    -0.002969
      dyz     :     0.028734
[...]
     23      -0.005805  -0.077377   0.059496   0.254364  -0.352412   0.254206
     24      -0.122641  -0.080236  -0.149645   0.050087   0.017252  -0.022402
     25       0.006460  -0.001076   0.104407   0.356224   0.006376  -0.358610
     26      -0.149376  -0.097588   0.123408  -0.040852   0.019669   0.017826
     27       0.122171   0.080660   0.150210  -0.048822  -0.017315   0.021576
     28       0.006360  -0.000617  -0.105021  -0.356460  -0.007569   0.358486
     29       0.149664   0.097280  -0.122575   0.042563  -0.019554  -0.018673
     30       0.117291  -0.183367  -0.011947   0.011816   0.014900   0.021875
     31       0.128559   0.069283  -0.155021   0.036722  -0.016694   0.003513
     32       0.007019   0.071665  -0.057343  -0.253349   0.351243  -0.256059
     33       0.015275  -0.104082  -0.052915  -0.238544  -0.350453  -0.256325
     34       0.127855   0.070036   0.155359  -0.036269  -0.018144  -0.003585
     35      -0.116506   0.166318  -0.023621  -0.033331  -0.083918  -0.027803
     36      -0.016922   0.110369   0.054985   0.239573   0.351635   0.254442
     37      -0.126971  -0.070242  -0.155413   0.036052   0.018175   0.002955
     38       0.116189  -0.165944   0.023965   0.033712   0.084210   0.026581
                 24         25         26         27         28         29    
      0       0.014292   0.000306   0.009331  -0.000135   0.000265   0.059603
      1       0.012558   0.000038   0.000050  -0.000021  -0.000002  -0.040717
      2      -0.011924   0.000249   0.011175  -0.000149  -0.000220  -0.048848
      3      -0.053456   0.051694  -0.101326  -0.081629  -0.049147  -0.007474
      4       0.119671   0.305016   0.255801  -0.075045  -0.342533   0.211780
      5       0.239952  -0.104613   0.347129  -0.465488  -0.002552   0.313666
      6       0.400412   0.375476  -0.044412  -0.046586  -0.296953  -0.315587
      7      -0.071683   0.077813  -0.004550  -0.013842  -0.003144   0.002509
      8      -0.322600  -0.312712  -0.040386   0.055294  -0.364114   0.259498
      9      -0.052952  -0.056980  -0.090724   0.085965   0.048327  -0.006502
     10       0.113622  -0.295998   0.270748   0.057925   0.345704   0.210297
     11       0.238709   0.123019   0.364191   0.449694   0.007439   0.311703
     12       0.397902  -0.375402  -0.025657   0.048003   0.304034  -0.316195
     13      -0.070741  -0.078418   0.003579   0.014103  -0.001011   0.002333
     14      -0.330474   0.307377  -0.056168  -0.051903   0.358867   0.258469
     15      -0.250452  -0.113843   0.357986  -0.440178  -0.027691  -0.309503
     16       0.124484  -0.305129  -0.253387   0.091492  -0.338077   0.210328
     17       0.005570   0.030728  -0.031881  -0.171659   0.040202  -0.053402
     18      -0.250116   0.129287   0.372974   0.424614   0.021975  -0.307711
     19       0.114189   0.297534  -0.268829  -0.074756   0.341363   0.208874
     20       0.006742  -0.032397  -0.018133   0.172649  -0.040465  -0.053983
     21       0.067127   0.013107  -0.088177   0.149440   0.008163   0.083549
     22      -0.037289   0.091289   0.077089  -0.042759   0.102049  -0.060838
     23       0.100493   0.037416  -0.172859  -0.026959  -0.005224   0.061821
     24      -0.136754   0.117049   0.009047  -0.022996  -0.089594   0.093736
     25      -0.125080  -0.027229   0.002329   0.027734   0.000580   0.037847
     26       0.112688  -0.095696   0.019673   0.022488  -0.104757  -0.076425
     27      -0.136686  -0.117044   0.015650   0.022695   0.087032   0.093347
     28      -0.125438   0.026594  -0.003861  -0.027538  -0.000747   0.037802
     29       0.111354   0.097568   0.014174  -0.023383   0.106671  -0.077037
     30       0.066610  -0.016895  -0.094675  -0.145464  -0.006824   0.082623
     31      -0.034015  -0.088972   0.082491   0.037460  -0.102829  -0.060152
     32       0.100763  -0.044446  -0.166935   0.032866   0.007858   0.061954
     33      -0.083664  -0.041011  -0.147021   0.061437  -0.005868  -0.045197
     34      -0.034000   0.088586  -0.083209  -0.032360  -0.104857  -0.060635
     35      -0.083023  -0.026004  -0.125735  -0.136243  -0.001283  -0.092839
     36      -0.084517   0.033593  -0.154024  -0.056200   0.003631  -0.044815
     37      -0.035881  -0.091322  -0.077933   0.037794   0.104095  -0.061341
     38      -0.083560   0.019741  -0.120709   0.141515  -0.000267  -0.093862
                 30         31         32         33         34         35    
      0      -0.002478  -0.037338  -0.021927  -0.000012   0.000011  -0.000117
      1      -0.000114  -0.000949  -0.060843   0.000019  -0.000000   0.000000
      2      -0.003026  -0.044911   0.019227   0.000008   0.000014  -0.000144
      3      -0.029282  -0.021209   0.023113   0.406084  -0.238913   0.400797
      4      -0.362766  -0.120590   0.410778  -0.042186   0.013143  -0.038617
      5       0.241136   0.142406  -0.242873  -0.010742   0.018857  -0.016639
      6      -0.169793   0.389862   0.039289  -0.007588  -0.027933   0.000002
      7      -0.001722   0.002945  -0.002649  -0.000265   0.469074  -0.002099
      8      -0.205405   0.474754  -0.043872  -0.008931   0.019973  -0.000293
      9      -0.029011  -0.021659   0.022662  -0.407654   0.242826   0.398490
     10      -0.361000  -0.120863   0.409612   0.042889  -0.013693  -0.039050
     11       0.236438   0.140507  -0.242605   0.011878  -0.019917  -0.017799
     12      -0.167922   0.390134   0.039637   0.007372   0.025810  -0.000316
     13       0.001241  -0.001864  -0.002617  -0.001198  -0.469361   0.003154
     14      -0.206545   0.474332  -0.043174   0.009151  -0.022919  -0.000027
     15       0.241334   0.150273   0.236891   0.089259   0.064426  -0.094267
     16       0.364020   0.132729   0.407124  -0.042149  -0.013007   0.038737
     17       0.017631   0.007352   0.023711  -0.397141  -0.229733   0.392180
     18       0.236686   0.148651   0.236713  -0.090432  -0.066140  -0.094814
     19       0.362787   0.132827   0.406169   0.042920   0.013639   0.039291
     20       0.016697   0.006487   0.023879   0.398263   0.233635   0.389972
     21      -0.078269  -0.037093  -0.077644  -0.063150  -0.038738   0.065229
     22      -0.123785  -0.047677  -0.126113   0.027109   0.011096  -0.025540
     23      -0.011004  -0.020151  -0.001124   0.277898   0.160534  -0.289024
     24       0.056370  -0.124408  -0.007406  -0.002567  -0.017152   0.000123
     25       0.000106   0.000464  -0.008604   0.000749   0.324703  -0.002243
     26       0.069497  -0.151214   0.009419  -0.003158   0.015371  -0.000105
     27       0.057165  -0.124118  -0.007269   0.002605   0.018703  -0.000091
     28       0.000054  -0.001081  -0.008522   0.000135  -0.324497   0.001469
     29       0.068968  -0.151521   0.009703   0.003118  -0.013214   0.000071
     30      -0.076683  -0.036215  -0.077650   0.064155   0.039916   0.065714
     31      -0.123246  -0.047701  -0.125624  -0.027690  -0.011584  -0.025941
     32      -0.010822  -0.020723  -0.000930  -0.278852  -0.163452  -0.287506
     33       0.004082  -0.013851  -0.013671   0.285600  -0.168645  -0.292967
     34       0.122763   0.044041  -0.126955  -0.027635   0.011621   0.025752
     35      -0.077661  -0.037384   0.077992  -0.009171   0.007697   0.009021
     36       0.004247  -0.013048  -0.013557  -0.284289   0.165728  -0.294537
     37       0.123492   0.043956  -0.127516   0.027107  -0.011186   0.025439
     38      -0.079238  -0.038208   0.078083   0.008210  -0.007015   0.008105
                 36         37         38    
      0       0.000182  -0.000993   0.000002
      1       0.000605   0.000871  -0.000000
      2      -0.000152   0.000819   0.000002
      3      -0.182779   0.357991  -0.332240
      4       0.018219  -0.031283   0.026957
      5       0.008461  -0.012894   0.006786
      6       0.032131   0.011502   0.016562
      7      -0.506217  -0.257927  -0.341371
      8      -0.023068  -0.007745  -0.011417
      9      -0.181340   0.356813   0.331624
     10       0.018331  -0.031697  -0.027376
     11       0.009073  -0.014082  -0.007865
     12       0.029697   0.010264  -0.014983
     13      -0.505972  -0.257939   0.341293
     14      -0.026388  -0.009449   0.013586
     15      -0.043564   0.081227   0.070824
     16       0.018169  -0.030966  -0.026915
     17       0.177488  -0.346405  -0.324483
     18      -0.043694   0.081974  -0.071594
     19       0.018299  -0.031460   0.027411
     20       0.175619  -0.345082   0.323720
     21       0.029996  -0.057967  -0.049255
     22      -0.011493   0.022216   0.018868
     23      -0.131168   0.257310   0.223850
     24      -0.018125  -0.008289   0.010550
     25       0.372087   0.190750  -0.235309
     26       0.016370   0.007564  -0.009598
     27      -0.019928  -0.009204  -0.011681
     28       0.372270   0.190752   0.235369
     29       0.013910   0.006306   0.008046
     30       0.030106  -0.058540   0.049817
     31      -0.011606   0.022576  -0.019220
     32      -0.129869   0.256389  -0.223343
     33       0.133657  -0.264637  -0.228868
     34      -0.011622   0.022710   0.019201
     35      -0.004532   0.008096   0.005848
     36       0.134647  -0.265446   0.229266
     37      -0.011522   0.022408  -0.018905
     38      -0.004088   0.007212  -0.005076


-----------
IR SPECTRUM
-----------

 Mode   freq       eps      Int      T**2         TX        TY        TZ
       cm**-1   L/(mol*cm) km/mol    a.u.
----------------------------------------------------------------------------
  7:     40.98   0.000112    0.56  0.000851  ( 0.021282  0.009481 -0.017555)
  8:     45.10   0.000050    0.25  0.000344  ( 0.011882  0.000245  0.014240)
  9:     57.69   0.000000    0.00  0.000000  ( 0.000334 -0.000161  0.000466)
 10:     62.32   0.000000    0.00  0.000002  ( 0.000609 -0.001057 -0.000492)
 11:     66.19   0.000147    0.74  0.000694  ( 0.013447 -0.019784 -0.011044)
 12:     77.95   0.000139    0.70  0.000555  (-0.011036 -0.019437  0.007459)
 13:     78.25   0.000186    0.94  0.000741  ( 0.016774 -0.000996  0.021414)
 14:     78.54   0.000000    0.00  0.000000  ( 0.000121  0.000145 -0.000003)
 15:    286.28   0.003265   16.50  0.003559  (-0.038208 -0.000056 -0.045822)
 16:    292.53   0.002996   15.14  0.003196  ( 0.042906  0.009270 -0.035631)
 17:    329.40   0.002787   14.08  0.002640  (-0.003901 -0.051128  0.003270)
 18:    342.14   0.000000    0.00  0.000000  ( 0.000019  0.000488 -0.000040)
 19:    365.46   0.000000    0.00  0.000000  ( 0.000310 -0.000408 -0.000223)
 20:    376.12   0.000000    0.00  0.000000  ( 0.000190 -0.000032  0.000213)
 21:    396.95   0.000000    0.00  0.000000  ( 0.000221 -0.000038  0.000258)
 22:    399.04   0.000000    0.00  0.000000  ( 0.000285  0.000006 -0.000211)
 23:    422.55   0.000000    0.00  0.000000  ( 0.000093  0.000019  0.000083)
 24:    455.88   0.001869    9.44  0.001279  ( 0.022636  0.020250 -0.018887)
 25:    459.30   0.000000    0.00  0.000000  ( 0.000364  0.000071  0.000286)
 26:    464.77   0.001733    8.76  0.001164  ( 0.021899  0.000146  0.026160)
 27:    480.69   0.000002    0.01  0.000001  (-0.000728 -0.000004 -0.000845)
 28:    485.14   0.000000    0.00  0.000000  ( 0.000294  0.000095 -0.000277)
 29:    542.40   0.002093   10.58  0.001204  (-0.022943  0.017964  0.018844)
 30:    544.67   0.000000    0.00  0.000000  ( 0.000027  0.000125 -0.000001)
 31:    580.42   0.004328   21.87  0.002327  ( 0.030791  0.000844  0.037125)
 32:    585.54   0.006291   31.79  0.003353  ( 0.015038  0.054300 -0.013351)
 33:   1824.93   0.000008    0.04  0.000001  (-0.000879 -0.000345  0.000697)
 34:   1864.86   0.000005    0.03  0.000001  ( 0.000596 -0.000066  0.000728)
 35:   1926.53   0.588523  2974.15  0.095330  ( 0.195414  0.000499  0.239047)
 36:   1939.48   0.577901  2920.47  0.092984  (-0.110904 -0.268991  0.091262)
 37:   1965.79   0.536152  2709.49  0.085113  ( 0.198106 -0.140558 -0.161586)
 38:   2090.92   0.000000    0.00  0.000000  (-0.000085 -0.000014 -0.000089)

* The epsilon (eps) is given for a Dirac delta lineshape.
** The dipole moment derivative (T) already includes vibrational overlap.

The first frequency considered to be a vibration is 7
The total number of vibrations considered is 32


--------------------------
THERMOCHEMISTRY AT 298.15K
--------------------------

Temperature         ... 298.15 K
Pressure            ... 1.00 atm
Total Mass          ... 351.91 AMU

Throughout the following assumptions are being made:
  (1) The electronic state is orbitally nondegenerate
      but the spin degeneracy is treated
  (2) There are no thermally accessible electronically excited states
  (3) Hindered rotations indicated by low frequency modes are not
      treated as such but are treated as vibrations and this may
      cause some error
  (4) All equations used are the standard statistical mechanics
      equations for an ideal gas
  (5) All vibrations are strictly harmonic

freq.      40.98  E(vib)   ...       0.54 
freq.      45.10  E(vib)   ...       0.53 
freq.      57.69  E(vib)   ...       0.51 
freq.      62.32  E(vib)   ...       0.51 
freq.      66.19  E(vib)   ...       0.50 
freq.      77.95  E(vib)   ...       0.49 
freq.      78.25  E(vib)   ...       0.49 
freq.      78.54  E(vib)   ...       0.49 
freq.     286.28  E(vib)   ...       0.27 
freq.     292.53  E(vib)   ...       0.27 
freq.     329.40  E(vib)   ...       0.24 
freq.     342.14  E(vib)   ...       0.23 
freq.     365.46  E(vib)   ...       0.22 
freq.     376.12  E(vib)   ...       0.21 
freq.     396.95  E(vib)   ...       0.20 
freq.     399.04  E(vib)   ...       0.19 
freq.     422.55  E(vib)   ...       0.18 
freq.     455.88  E(vib)   ...       0.16 
freq.     459.30  E(vib)   ...       0.16 
freq.     464.77  E(vib)   ...       0.16 
freq.     480.69  E(vib)   ...       0.15 
freq.     485.14  E(vib)   ...       0.15 
freq.     542.40  E(vib)   ...       0.12 
freq.     544.67  E(vib)   ...       0.12 
freq.     580.42  E(vib)   ...       0.11 
freq.     585.54  E(vib)   ...       0.11 
freq.    1824.93  E(vib)   ...       0.00 
freq.    1864.86  E(vib)   ...       0.00 
freq.    1926.53  E(vib)   ...       0.00 
freq.    1939.48  E(vib)   ...       0.00 
freq.    1965.79  E(vib)   ...       0.00 
freq.    2090.92  E(vib)   ...       0.00 

------------
INNER ENERGY
------------

The inner energy is: U= E(el) + E(ZPE) + E(vib) + E(rot) + E(trans)
    E(el)   - is the total energy from the electronic structure calculation
              = E(kin-el) + E(nuc-el) + E(el-el) + E(nuc-nuc)
    E(ZPE)  - the the zero temperature vibrational energy from the frequency calculation
    E(vib)  - the the finite temperature correction to E(ZPE) due to population
              of excited vibrational states
    E(rot)  - is the rotational thermal energy
    E(trans)- is the translational thermal energy

Summary of contributions to the inner energy U:
Electronic energy                ...   -746.42074933 Eh
Zero point energy                ...      0.04540118 Eh      28.49 kcal/mol
Thermal vibrational correction   ...      0.01164316 Eh       7.31 kcal/mol
Thermal rotational correction    ...      0.00141627 Eh       0.89 kcal/mol
Thermal translational correction ...      0.00141627 Eh       0.89 kcal/mol
-----------------------------------------------------------------------
Total thermal energy                   -746.36087244 Eh


Summary of corrections to the electronic energy:
(perhaps to be used in another calculation)
Total thermal correction                  0.01447571 Eh       9.08 kcal/mol
Non-thermal (ZPE) correction              0.04540118 Eh      28.49 kcal/mol
-----------------------------------------------------------------------
Total correction                          0.05987689 Eh      37.57 kcal/mol


--------
ENTHALPY
--------

The enthalpy is H = U + kB*T
                kB is Boltzmann's constant
Total free energy                 ...   -746.36087244 Eh 
Thermal Enthalpy correction       ...      0.00094421 Eh       0.59 kcal/mol
-----------------------------------------------------------------------
Total Enthalpy                    ...   -746.35992823 Eh


Note: Only C1 symmetry has been detected, increase convergence thresholds 
      if your molecule has a higher symmetry. Symmetry factor of 1.0 is   
      used for the rotational entropy correction. 
 

Note: Rotational entropy computed according to Herzberg 
Infrared and Raman Spectra, Chapter V,1, Van Nostrand Reinhold, 1945 
Point Group:  C1, Symmetry Number:   1  
Rotational constants in cm-1:     0.020940     0.018608     0.017949 

Vibrational entropy computed according to the QRRHO of S. Grimme
Chem.Eur.J. 2012 18 9955


-------
ENTROPY
-------

The entropy contributions are T*S = T*(S(el)+S(vib)+S(rot)+S(trans))
     S(el)   - electronic entropy
     S(vib)  - vibrational entropy
     S(rot)  - rotational entropy
     S(trans)- translational entropy
The entropies will be listed as multiplied by the temperature to get
units of energy

Electronic entropy                ...      0.00065446 Eh      0.41 kcal/mol
Vibrational entropy               ...      0.02094864 Eh     13.15 kcal/mol
Rotational entropy                ...      0.01511476 Eh      9.48 kcal/mol
Translational entropy             ...      0.02065320 Eh     12.96 kcal/mol
-----------------------------------------------------------------------
Final entropy term                ...      0.05737105 Eh     36.00 kcal/mol

In case the symmetry of your molecule has not been determined correctly
or in case you have a reason to use a different symmetry number we print 
out the resulting rotational entropy values for sn=1,12 :
 --------------------------------------------------------
|  sn= 1 | S(rot)=       0.01511476 Eh      9.48 kcal/mol|
|  sn= 2 | S(rot)=       0.01446030 Eh      9.07 kcal/mol|
|  sn= 3 | S(rot)=       0.01407747 Eh      8.83 kcal/mol|
|  sn= 4 | S(rot)=       0.01380585 Eh      8.66 kcal/mol|
|  sn= 5 | S(rot)=       0.01359516 Eh      8.53 kcal/mol|
|  sn= 6 | S(rot)=       0.01342301 Eh      8.42 kcal/mol|
|  sn= 7 | S(rot)=       0.01327747 Eh      8.33 kcal/mol|
|  sn= 8 | S(rot)=       0.01315139 Eh      8.25 kcal/mol|
|  sn= 9 | S(rot)=       0.01304018 Eh      8.18 kcal/mol|
|  sn=10 | S(rot)=       0.01294070 Eh      8.12 kcal/mol|
|  sn=11 | S(rot)=       0.01285071 Eh      8.06 kcal/mol|
|  sn=12 | S(rot)=       0.01276856 Eh      8.01 kcal/mol|
 --------------------------------------------------------


-------------------
GIBBS FREE ENERGY
-------------------

The Gibbs free energy is G = H - T*S

Total enthalpy                    ...   -746.35992823 Eh 
Total entropy correction          ...     -0.05737105 Eh    -36.00 kcal/mol
-----------------------------------------------------------------------
Final Gibbs free energy         ...   -746.41729928 Eh

For completeness - the Gibbs free energy minus the electronic energy
G-E(el)                           ...      0.00345004 Eh      2.16 kcal/mol


Timings for individual modules:

Sum of individual times         ...     1948.905 sec (=  32.482 min)
GTO integral calculation        ...       16.208 sec (=   0.270 min)   0.8 %
SCF iterations                  ...     1008.140 sec (=  16.802 min)  51.7 %
SCF Gradient evaluation         ...      180.370 sec (=   3.006 min)   9.3 %
Geometry relaxation             ...        0.423 sec (=   0.007 min)   0.0 %
Analytical frequency calculation...      743.764 sec (=  12.396 min)  38.2 %
                             ****ORCA TERMINATED NORMALLY****
TOTAL RUN TIME: 0 days 0 hours 32 minutes 31 seconds 4 msec
