
                                 *****************
                                 * O   R   C   A *
                                 *****************

                                            #,                                       
                                            ###                                      
                                            ####                                     
                                            #####                                    
                                            ######                                   
                                           ########,                                 
                                     ,,################,,,,,                         
                               ,,#################################,,                 
                          ,,##########################################,,             
                       ,#########################################, ''#####,          
                    ,#############################################,,   '####,        
                  ,##################################################,,,,####,       
                ,###########''''           ''''###############################       
              ,#####''   ,,,,##########,,,,          '''####'''          '####       
            ,##' ,,,,###########################,,,                        '##       
           ' ,,###''''                  '''############,,,                           
         ,,##''                                '''############,,,,        ,,,,,,###''
      ,#''                                            '''#######################'''  
     '                                                          ''''####''''         
             ,#######,   #######,   ,#######,      ##                                
            ,#'     '#,  ##    ##  ,#'     '#,    #''#        ######   ,####,        
            ##       ##  ##   ,#'  ##            #'  '#       #        #'  '#        
            ##       ##  #######   ##           ,######,      #####,   #    #        
            '#,     ,#'  ##    ##  '#,     ,#' ,#      #,         ##   #,  ,#        
             '#######'   ##     ##  '#######'  #'      '#     #####' # '####'        



                  #######################################################
                  #                        -***-                        #
                  #          Department of theory and spectroscopy      #
                  #    Directorship and core code : Frank Neese         #
                  #        Max Planck Institute fuer Kohlenforschung    #
                  #                Kaiser Wilhelm Platz 1               #
                  #                 D-45470 Muelheim/Ruhr               #
                  #                      Germany                        #
                  #                                                     #
                  #                  All rights reserved                #
                  #                        -***-                        #
                  #######################################################



                         Program Version 5.0.4 -  RELEASE  -

 With contributions from (in alphabetic order):
   Daniel Aravena         : Magnetic Suceptibility
   Michael Atanasov       : Ab Initio Ligand Field Theory (pilot matlab implementation)
   Alexander A. Auer      : GIAO ZORA, VPT2 properties, NMR spectrum
   Ute Becker             : Parallelization
   Giovanni Bistoni       : ED, misc. LED, open-shell LED, HFLD
   Martin Brehm           : Molecular dynamics
   Dmytro Bykov           : SCF Hessian
   Vijay G. Chilkuri      : MRCI spin determinant printing, contributions to CSF-ICE
   Dipayan Datta          : RHF DLPNO-CCSD density
   Achintya Kumar Dutta   : EOM-CC, STEOM-CC
   Dmitry Ganyushin       : Spin-Orbit,Spin-Spin,Magnetic field MRCI
   Miquel Garcia          : C-PCM and meta-GGA Hessian, CC/C-PCM, Gaussian charge scheme
   Yang Guo               : DLPNO-NEVPT2, F12-NEVPT2, CIM, IAO-localization
   Andreas Hansen         : Spin unrestricted coupled pair/coupled cluster methods
   Benjamin Helmich-Paris : MC-RPA, TRAH-SCF, COSX integrals
   Lee Huntington         : MR-EOM, pCC
   Robert Izsak           : Overlap fitted RIJCOSX, COSX-SCS-MP3, EOM
   Marcus Kettner         : VPT2
   Christian Kollmar      : KDIIS, OOCD, Brueckner-CCSD(T), CCSD density, CASPT2, CASPT2-K
   Simone Kossmann        : Meta GGA functionals, TD-DFT gradient, OOMP2, MP2 Hessian
   Martin Krupicka        : Initial AUTO-CI
   Lucas Lang             : DCDCAS
   Marvin Lechner         : AUTO-CI (C++ implementation), FIC-MRCC
   Dagmar Lenk            : GEPOL surface, SMD
   Dimitrios Liakos       : Extrapolation schemes; Compound Job, initial MDCI parallelization
   Dimitrios Manganas     : Further ROCIS development; embedding schemes
   Dimitrios Pantazis     : SARC Basis sets
   Anastasios Papadopoulos: AUTO-CI, single reference methods and gradients
   Taras Petrenko         : DFT Hessian,TD-DFT gradient, ASA, ECA, R-Raman, ABS, FL, XAS/XES, NRVS
   Peter Pinski           : DLPNO-MP2, DLPNO-MP2 Gradient
   Christoph Reimann      : Effective Core Potentials
   Marius Retegan         : Local ZFS, SOC
   Christoph Riplinger    : Optimizer, TS searches, QM/MM, DLPNO-CCSD(T), (RO)-DLPNO pert. Triples
   Tobias Risthaus        : Range-separated hybrids, TD-DFT gradient, RPA, STAB
   Michael Roemelt        : Original ROCIS implementation
   Masaaki Saitow         : Open-shell DLPNO-CCSD energy and density
   Barbara Sandhoefer     : DKH picture change effects
   Avijit Sen             : IP-ROCIS
   Kantharuban Sivalingam : CASSCF convergence, NEVPT2, FIC-MRCI
   Bernardo de Souza      : ESD, SOC TD-DFT
   Georgi Stoychev        : AutoAux, RI-MP2 NMR, DLPNO-MP2 response
   Willem Van den Heuvel  : Paramagnetic NMR
   Boris Wezisla          : Elementary symmetry handling
   Frank Wennmohs         : Technical directorship


 We gratefully acknowledge several colleagues who have allowed us to
 interface, adapt or use parts of their codes:
   Stefan Grimme, W. Hujo, H. Kruse, P. Pracht,  : VdW corrections, initial TS optimization,
                  C. Bannwarth, S. Ehlert          DFT functionals, gCP, sTDA/sTD-DF
   Ed Valeev, F. Pavosevic, A. Kumar             : LibInt (2-el integral package), F12 methods
   Garnet Chan, S. Sharma, J. Yang, R. Olivares  : DMRG
   Ulf Ekstrom                                   : XCFun DFT Library
   Mihaly Kallay                                 : mrcc  (arbitrary order and MRCC methods)
   Jiri Pittner, Ondrej Demel                    : Mk-CCSD
   Frank Weinhold                                : gennbo (NPA and NBO analysis)
   Christopher J. Cramer and Donald G. Truhlar   : smd solvation model
   Lars Goerigk                                  : TD-DFT with DH, B97 family of functionals
   V. Asgeirsson, H. Jonsson                     : NEB implementation
   FAccTs GmbH                                   : IRC, NEB, NEB-TS, DLPNO-Multilevel, CI-OPT
                                                   MM, QMMM, 2- and 3-layer-ONIOM, Crystal-QMMM,
                                                   LR-CPCM, SF, NACMEs, symmetry and pop. for TD-DFT,
                                                   nearIR, NL-DFT gradient (VV10), updates on ESD,
                                                   ML-optimized integration grids
   S Lehtola, MJT Oliveira, MAL Marques          : LibXC Library
   Liviu Ungur et al                             : ANISO software


 Your calculation uses the libint2 library for the computation of 2-el integrals
 For citations please refer to: http://libint.valeyev.net

 Your ORCA version has been built with support for libXC version: 5.1.0
 For citations please refer to: https://tddft.org/programs/libxc/

 This ORCA versions uses:
   CBLAS   interface :  Fast vector & matrix operations
   LAPACKE interface :  Fast linear algebra routines
   Shared memory     :  Shared parallel matrices


================================================================================

cite the ECPs for W  [Def2-ECP] as follows:
Ce-Yb(ecp-28): M. Dolg, H. Stoll, H.Preuss, J. Chem. Phys., 1989, 90, 1730-1734.
Y-Cd(ecp-28), Hf-Hg(ecp-46): D. Andrae,U. Haeussermann, M. Dolg, H. Stoll, H. Preuss, Theor. Chim. Acta, 1990, 77, 123-141.
In-Sb(ecp-28), Tl-Bi(ecp-46): B. Metz, H. Stoll, M. Dolg, J. Chem. Phys., 2000, 113, 2563-2569.
Te-Xe(ecp-28), Po-Rn(ecp-46): K. A. Peterson, D. Figgen, E. Goll, H. Stoll, M. Dolg, J. Chem. Phys., 2003, 119, 11113-11123.
Rb(ecp-28), Cs(ecp-46): T. Leininger, A. Nicklass, W. Kuechle, H. Stoll, M. Dolg, A. Bergner, Chem. Phys. Lett., 1996, 255, 274-280.
Sr(ecp-28), Ba(ecp-46): M. Kaupp, P. V. Schleyer, H. Stoll and H. Preuss, J. Chem. Phys., 1991, 94, 1360-1366.
La(ecp-46): M. Dolg, H. Stoll, A. Savin, H. Preuss, Theor. Chim. Acta, 1989, 75, 173-194.
Lu(ecp-28): X. Cao, M. Dolg, J. Chem. Phys., 2001, 115, 7348-7355.

ECP parameters for W  [Def2-ECP] have been obtained from:
TURBOMOLE (7.0.2)

----- Orbital basis set information -----
Your calculation utilizes the basis: def2-SVP
   F. Weigend and R. Ahlrichs, Phys. Chem. Chem. Phys. 7, 3297 (2005).

----- AuxJ basis set information -----
Your calculation utilizes the auxiliary basis: def2/J
   F. Weigend, Phys. Chem. Chem. Phys. 8, 1057 (2006).

================================================================================
                                        WARNINGS
                       Please study these warnings very carefully!
================================================================================

WARNING: Old DensityContainer found on disk!
         Will remove this file - 
         If you want to keep old densities, please start your calculation with a different basename. 


WARNING: Geometry Optimization
  ===> : Switching off AutoStart
         For restart on a previous wavefunction, please use MOREAD

INFO   : the flag for use of the SHARK integral package has been found!

================================================================================
                                       INPUT FILE
================================================================================
NAME = WCO6_new.inp
|  1> !B3LYP def2-SVP OPT FREQ

|  2> 

|  3> * xyz 0 1 

|  4> W         -1.37621        2.56722        0.10711

|  5> C          0.70839        2.53117        0.30993

|  6> C         -1.33834        4.66140        0.07376

|  7> C         -3.46098        2.60316       -0.09572

|  8> C         -1.41502        0.47296        0.14051

|  9> C         -1.57994        2.60535        2.19168

| 10> C         -1.17198        2.52910       -1.97739

| 11> O         -1.68985        2.62619        3.31419

| 12> O         -1.43573       -0.65466        0.15820

| 13> O         -1.31832        5.78914        0.05603

| 14> O         -1.06136        2.50831       -3.09969

| 15> O         -4.58356        2.62277       -0.20455

| 16> O          1.83095        2.51149        0.41866

| 17> **                         ****END OF INPUT****
================================================================================

                       *****************************
                       * Geometry Optimization Run *
                       *****************************

Geometry optimization settings:
Update method            Update   .... BFGS
Choice of coordinates    CoordSys .... Z-matrix Internals
Initial Hessian          InHess   .... Almoef's Model

Convergence Tolerances:
Energy Change            TolE     ....  5.0000e-06 Eh
Max. Gradient            TolMAXG  ....  3.0000e-04 Eh/bohr
RMS Gradient             TolRMSG  ....  1.0000e-04 Eh/bohr
Max. Displacement        TolMAXD  ....  4.0000e-03 bohr
RMS Displacement         TolRMSD  ....  2.0000e-03 bohr
Strict Convergence                ....  False
------------------------------------------------------------------------------
                        ORCA OPTIMIZATION COORDINATE SETUP
------------------------------------------------------------------------------

The optimization will be done in new redundant internal coordinates
Making redundant internal coordinates   ...  (new redundants) done
Evaluating the initial hessian          ...  (Almloef) done
Evaluating the coordinates              ...  done
Calculating the B-matrix                .... done
Calculating the G-matrix                .... done
Diagonalizing the G-matrix              .... done
The first mode is                       ....    3
The number of degrees of freedom        ....   33

    -----------------------------------------------------------------
                    Redundant Internal Coordinates


    -----------------------------------------------------------------
         Definition                    Initial Value    Approx d2E/dq
    -----------------------------------------------------------------
      1. B(C   1,W   0)                  2.0948         0.109219   
      2. B(C   2,W   0)                  2.0948         0.109206   
      3. B(C   3,W   0)                  2.0949         0.109152   
      4. B(C   4,W   0)                  2.0949         0.109166   
      5. B(C   5,W   0)                  2.0948         0.109181   
      6. B(C   6,W   0)                  2.0948         0.109190   
      7. B(O   7,C   5)                  1.1281         1.464762   
      8. B(O   8,C   4)                  1.1279         1.465417   
      9. B(O   9,C   2)                  1.1281         1.464835   
     10. B(O  10,C   6)                  1.1279         1.465518   
     11. B(O  11,C   3)                  1.1280         1.465070   
     12. B(O  12,C   1)                  1.1280         1.465222   
     13. A(C   4,W   0,C   5)           90.0303         0.265702   
     14. A(C   3,W   0,C   5)           89.9571         0.265697   
     15. A(C   2,W   0,C   3)           89.9598         0.265706   
     16. A(C   1,W   0,C   6)           89.9434         0.265725   
     17. A(C   2,W   0,C   6)           90.0337         0.265720   
     18. A(C   3,W   0,C   6)           90.0567         0.265700   
     19. A(C   4,W   0,C   6)           89.9702         0.265705   
     20. A(C   3,W   0,C   4)           90.0148         0.265691   
     21. A(C   1,W   0,C   2)           90.0433         0.265730   
     22. A(C   1,W   0,C   5)           90.0428         0.265721   
     23. A(C   1,W   0,C   4)           89.9821         0.265716   
     24. A(C   2,W   0,C   5)           89.9659         0.265716   
     25. L(W   0,C   1,O  12,C   6, 1) 179.9750         0.386553   
     26. L(W   0,C   1,O  12,C   6, 2) 180.0186         0.386553   
     27. L(W   0,C   2,O   9,C   3, 2) 179.9810         0.386527   
     28. L(W   0,C   2,O   9,C   3, 1) 179.9823         0.386527   
     29. L(W   0,C   3,O  11,C   5, 2) 179.9820         0.386504   
     30. L(W   0,C   3,O  11,C   5, 1) 179.9802         0.386504   
     31. L(W   0,C   4,O   8,C   6, 1) 179.9842         0.386529   
     32. L(W   0,C   4,O   8,C   6, 2) 179.9887         0.386529   
     33. L(W   0,C   5,O   7,C   3, 2) 180.0218         0.386508   
     34. L(W   0,C   5,O   7,C   3, 1) 179.9894         0.386508   
     35. L(W   0,C   6,O  10,C   1, 2) 179.9818         0.386548   
     36. L(W   0,C   6,O  10,C   1, 1) 179.9663         0.386548   
    -----------------------------------------------------------------

Number of atoms                         .... 13
Number of degrees of freedom            .... 36

         *************************************************************
         *                GEOMETRY OPTIMIZATION CYCLE   1            *
         *************************************************************
---------------------------------
CARTESIAN COORDINATES (ANGSTROEM)
---------------------------------
  W     -1.376210    2.567220    0.107110
  C      0.708390    2.531170    0.309930
  C     -1.338340    4.661400    0.073760
  C     -3.460980    2.603160   -0.095720
  C     -1.415020    0.472960    0.140510
  C     -1.579940    2.605350    2.191680
  C     -1.171980    2.529100   -1.977390
  O     -1.689850    2.626190    3.314190
  O     -1.435730   -0.654660    0.158200
  O     -1.318320    5.789140    0.056030
  O     -1.061360    2.508310   -3.099690
  O     -4.583560    2.622770   -0.204550
  O      1.830950    2.511490    0.418660

----------------------------
CARTESIAN COORDINATES (A.U.)
----------------------------
  NO LB      ZA    FRAG     MASS         X           Y           Z
   0 W    14.0000*   0   183.850   -2.600660    4.851343    0.202409
   1 C     6.0000    0    12.011    1.338663    4.783218    0.585683
   2 C     6.0000    0    12.011   -2.529096    8.808769    0.139386
   3 C     6.0000    0    12.011   -6.540304    4.919259   -0.180885
   4 C     6.0000    0    12.011   -2.674000    0.893765    0.265525
   5 C     6.0000    0    12.011   -2.985654    4.923398    4.141675
   6 C     6.0000    0    12.011   -2.214721    4.779306   -3.736726
   7 O     8.0000    0    15.999   -3.193354    4.962780    6.262911
   8 O     8.0000    0    15.999   -2.713137   -1.237128    0.298955
   9 O     8.0000    0    15.999   -2.491264   10.939889    0.105881
  10 O     8.0000    0    15.999   -2.005680    4.740019   -5.857565
  11 O     8.0000    0    15.999   -8.661673    4.956317   -0.386543
  12 O     8.0000    0    15.999    3.459994    4.746028    0.791153
* core charge reduced due to ECP

--------------------------------
INTERNAL COORDINATES (ANGSTROEM)
--------------------------------
 W      0   0   0     0.000000000000     0.00000000     0.00000000
 C      1   0   0     2.094753616753     0.00000000     0.00000000
 C      1   2   0     2.094787872745    90.04329025     0.00000000
 C      1   2   3     2.094921870954   179.99690674   182.29116734
 C      1   2   3     2.094885849802    89.98212640   180.00380390
 C      1   2   3     2.094848895434    90.04279574   270.03411615
 C      1   2   3     2.094827744064    89.94341391    90.03361590
 O      6   1   2     1.128070571285   179.98128769   124.50532445
 O      5   1   2     1.127948892725   179.98232997   296.87930288
 O      3   1   2     1.128057029099   179.97774731   217.10318201
 O      7   1   2     1.127930094687   179.96392626    20.91481758
 O      4   1   2     1.128013465079   179.97643751   120.50657057
 O      2   1   3     1.127985136826   179.97178934   242.17983125

---------------------------
INTERNAL COORDINATES (A.U.)
---------------------------
 W      0   0   0     0.000000000000     0.00000000     0.00000000
 C      1   0   0     3.958510653704     0.00000000     0.00000000
 C      1   2   0     3.958575388148    90.04329025     0.00000000
 C      1   2   3     3.958828608064   179.99690674   182.29116734
 C      1   2   3     3.958760537952    89.98212640   180.00380390
 C      1   2   3     3.958690704317    90.04279574   270.03411615
 C      1   2   3     3.958650734021    89.94341391    90.03361590
 O      6   1   2     2.131744439465   179.98128769   124.50532445
 O      5   1   2     2.131514500310   179.98232997   296.87930288
 O      3   1   2     2.131718848442   179.97774731   217.10318201
 O      7   1   2     2.131478977166   179.96392626    20.91481758
 O      4   1   2     2.131636524375   179.97643751   120.50657057
 O      2   1   3     2.131582991735   179.97178934   242.17983125

---------------------
BASIS SET INFORMATION
---------------------
There are 3 groups of distinct atoms

 Group   1 Type W   : 7s6p5d1f contracted to 6s3p2d1f pattern {211111/411/41/1}
 Group   2 Type C   : 7s4p1d contracted to 3s2p1d pattern {511/31/1}
 Group   3 Type O   : 7s4p1d contracted to 3s2p1d pattern {511/31/1}

Atom   0W    basis set group =>   1
Atom   1C    basis set group =>   2
Atom   2C    basis set group =>   2
Atom   3C    basis set group =>   2
Atom   4C    basis set group =>   2
Atom   5C    basis set group =>   2
Atom   6C    basis set group =>   2
Atom   7O    basis set group =>   3
Atom   8O    basis set group =>   3
Atom   9O    basis set group =>   3
Atom  10O    basis set group =>   3
Atom  11O    basis set group =>   3
Atom  12O    basis set group =>   3
---------------------------------
AUXILIARY/J BASIS SET INFORMATION
---------------------------------
There are 3 groups of distinct atoms

 Group   1 Type W   : 11s5p5d3f3g contracted to 8s5p5d2f3g pattern {41111111/11111/11111/21/111}
 Group   2 Type C   : 12s5p4d2f1g contracted to 6s4p3d1f1g pattern {711111/2111/211/2/1}
 Group   3 Type O   : 12s5p4d2f1g contracted to 6s4p3d1f1g pattern {711111/2111/211/2/1}

Atom   0W    basis set group =>   1
Atom   1C    basis set group =>   2
Atom   2C    basis set group =>   2
Atom   3C    basis set group =>   2
Atom   4C    basis set group =>   2
Atom   5C    basis set group =>   2
Atom   6C    basis set group =>   2
Atom   7O    basis set group =>   3
Atom   8O    basis set group =>   3
Atom   9O    basis set group =>   3
Atom  10O    basis set group =>   3
Atom  11O    basis set group =>   3
Atom  12O    basis set group =>   3
-------------------------
ECP PARAMETER INFORMATION
-------------------------

 Group 1, Type W  ECP Def2-ECP (replacing 60 core electrons, lmax=3)

Atom   0W    ECP group =>   1

------------------------------------------------------------------------------
                           ORCA GTO INTEGRAL CALCULATION
                           -- RI-GTO INTEGRALS CHOSEN --
------------------------------------------------------------------------------
------------------------------------------------------------------------------
                   ___                                                        
                  /   \      - P O W E R E D   B Y -                         
                 /     \                                                     
                 |  |  |   _    _      __       _____    __    __             
                 |  |  |  | |  | |    /  \     |  _  \  |  |  /  |          
                  \  \/   | |  | |   /    \    | | | |  |  | /  /          
                 / \  \   | |__| |  /  /\  \   | |_| |  |  |/  /          
                |  |  |   |  __  | /  /__\  \  |    /   |      \           
                |  |  |   | |  | | |   __   |  |    \   |  |\   \          
                \     /   | |  | | |  |  |  |  | |\  \  |  | \   \       
                 \___/    |_|  |_| |__|  |__|  |_| \__\ |__|  \__/        
                                                                              
                      - O R C A' S   B I G   F R I E N D -                    
                                      &                                       
                       - I N T E G R A L  F E E D E R -                       
                                                                              
 v1 FN, 2020, v2 2021                                                         
------------------------------------------------------------------------------


Reading SHARK input file WCO6_new.SHARKINP.tmp ... ok
----------------------
SHARK INTEGRAL PACKAGE
----------------------

Number of atoms                             ...     13
Number of basis functions                   ...    200
Number of shells                            ...     84
Maximum angular momentum                    ...      3
Integral batch strategy                     ... SHARK/LIBINT Hybrid
RI-J (if used) integral strategy            ... SPLIT-RIJ (Revised 2003 algorithm where possible)
Printlevel                                  ...      1
Contraction scheme used                     ... SEGMENTED contraction
Coulomb Range Separation                    ... NOT USED
Exchange Range Separation                   ... NOT USED
Finite Nucleus Model                        ... NOT USED
Auxiliary Coulomb fitting basis             ... AVAILABLE
   # of basis functions in Aux-J            ...    677
   # of shells in Aux-J                     ...    203
   Maximum angular momentum in Aux-J        ...      4
Auxiliary J/K fitting basis                 ... NOT available
Auxiliary Correlation fitting basis         ... NOT available
Auxiliary 'external' fitting basis          ... NOT available
Integral threshold                          ...     2.500000e-11
Primitive cut-off                           ...     2.500000e-12
Primitive pair pre-selection threshold      ...     2.500000e-12

Calculating pre-screening integrals         ... done (  0.0 sec) Dimension = 84
Organizing shell pair data                  ... done (  0.0 sec)
Shell pair information
Total number of shell pairs                 ...      3570
Shell pairs after pre-screening             ...      2979
Total number of primitive shell pairs       ...     13535
Primitive shell pairs kept                  ...      7814
          la=0 lb=0:    708 shell pairs
          la=1 lb=0:    990 shell pairs
          la=1 lb=1:    351 shell pairs
          la=2 lb=0:    432 shell pairs
          la=2 lb=1:    330 shell pairs
          la=2 lb=2:     84 shell pairs
          la=3 lb=0:     42 shell pairs
          la=3 lb=1:     27 shell pairs
          la=3 lb=2:     14 shell pairs
          la=3 lb=3:      1 shell pairs

Calculating one electron integrals          ... done (  0.0 sec)
Calculating ECP integrals                   ... done (  0.2 sec)
Calculating RI/J V-Matrix + Cholesky decomp.... done (  0.0 sec)
Calculating Nuclear repulsion               ... done (  0.0 sec) ENN=    755.755504036229 Eh

SHARK setup successfully completed in   0.3 seconds

Maximum memory used throughout the entire GTOINT-calculation: 40.9 MB
-------------------------------------------------------------------------------
                                 ORCA SCF
-------------------------------------------------------------------------------

------------
SCF SETTINGS
------------
Hamiltonian:
 Density Functional     Method          .... DFT(GTOs)
 Exchange Functional    Exchange        .... B88
   X-Alpha parameter    XAlpha          ....  0.666667
   Becke's b parameter  XBeta           ....  0.004200
 Correlation Functional Correlation     .... LYP
 LDA part of GGA corr.  LDAOpt          .... VWN-5
 Gradients option       PostSCFGGA      .... off
 Hybrid DFT is turned on
   Fraction HF Exchange ScalHFX         ....  0.200000
   Scaling of DF-GGA-X  ScalDFX         ....  0.720000
   Scaling of DF-GGA-C  ScalDFC         ....  0.810000
   Scaling of DF-LDA-C  ScalLDAC        ....  1.000000
   Perturbative correction              ....  0.000000
   Density functional embedding theory  .... OFF
   NL short-range parameter             ....  4.800000
 RI-approximation to the Coulomb term is turned on
   Number of AuxJ basis functions       .... 677
   RIJ-COSX (HFX calculated with COS-X)).... on


General Settings:
 Integral files         IntName         .... WCO6_new
 Hartree-Fock type      HFTyp           .... RHF
 Total Charge           Charge          ....    0
 Multiplicity           Mult            ....    1
 Number of Electrons    NEL             ....   98
 Basis Dimension        Dim             ....  200
 Nuclear Repulsion      ENuc            ....    755.7555040362 Eh

Convergence Acceleration:
 DIIS                   CNVDIIS         .... on
   Start iteration      DIISMaxIt       ....    12
   Startup error        DIISStart       ....  0.200000
   # of expansion vecs  DIISMaxEq       ....     5
   Bias factor          DIISBfac        ....   1.050
   Max. coefficient     DIISMaxC        ....  10.000
 Trust-Rad. Augm. Hess. CNVTRAH         .... auto
   Auto Start mean grad. ratio tolernc. ....  1.125000
   Auto Start start iteration           ....    20
   Auto Start num. interpolation iter.  ....    10
   Max. Number of Micro iterations      ....    16
   Max. Number of Macro iterations      .... Maxiter - #DIIS iter
   Number of Davidson start vectors     ....     2
   Converg. threshold I  (grad. norm)   ....   1.000e-05
   Converg. threshold II (energy diff.) ....   1.000e-08
   Grad. Scal. Fac. for Micro threshold ....   0.100
   Minimum threshold for Micro iter.    ....   0.010
   NR start threshold (gradient norm)   ....   0.001
   Initial trust radius                 ....   0.400
   Minimum AH scaling param. (alpha)    ....   1.000
   Maximum AH scaling param. (alpha)    .... 1000.000
   Orbital update algorithm             .... Taylor
   White noise on init. David. guess    .... on
   Maximum white noise                  ....   0.010
   Quad. conv. algorithm                .... NR
 SOSCF                  CNVSOSCF        .... off
 Level Shifting         CNVShift        .... on
   Level shift para.    LevelShift      ....    0.2500
   Turn off err/grad.   ShiftErr        ....    0.0010
 Zerner damping         CNVZerner       .... off
 Static damping         CNVDamp         .... on
   Fraction old density DampFac         ....    0.7000
   Max. Damping (<1)    DampMax         ....    0.9800
   Min. Damping (>=0)   DampMin         ....    0.0000
   Turn off err/grad.   DampErr         ....    0.1000
 Fernandez-Rico         CNVRico         .... off

SCF Procedure:
 Maximum # iterations   MaxIter         ....   125
 SCF integral mode      SCFMode         .... Direct
   Integral package                     .... SHARK and LIBINT hybrid scheme
 Reset frequency        DirectResetFreq ....    20
 Integral Threshold     Thresh          ....  2.500e-11 Eh
 Primitive CutOff       TCut            ....  2.500e-12 Eh

Convergence Tolerance:
 Convergence Check Mode ConvCheckMode   .... Total+1el-Energy
 Convergence forced     ConvForced      .... 0
 Energy Change          TolE            ....  1.000e-08 Eh
 1-El. energy change                    ....  1.000e-05 Eh
 DIIS Error             TolErr          ....  5.000e-07


Diagonalization of the overlap matrix:
Smallest eigenvalue                        ... 1.328e-03
Time for diagonalization                   ...    0.005 sec
Threshold for overlap eigenvalues          ... 1.000e-08
Number of eigenvalues below threshold      ... 0
Time for construction of square roots      ...    0.003 sec
Total time needed                          ...    0.009 sec

Time for model grid setup =    0.158 sec

------------------------------
INITIAL GUESS: MODEL POTENTIAL
------------------------------
Loading Hartree-Fock densities                     ... done
  calling C:\orca_5_0_4\orca WCO6_new_atom74.inp > WCO6_new_atom74.out in order to generate an atomic fitting density for atom 0 (W  with ECP) on-the-fly... 
    atom 0 (W ), assumed electronic state with S=5: 1s2 2s2 2p6 3s2 3p6 4s2 3d10 4p6 5s2 4d10 5p6 6s2 4f14 5d4           ... done
Calculating cut-offs                               ... done
Initializing the effective Hamiltonian             ... done
Setting up the integral package (SHARK)            ... done
Starting the Coulomb interaction                   ... done (   0.1 sec)
Reading the grid                                   ... done
Mapping shells                                     ... done
Starting the XC term evaluation                    ... done (   0.2 sec)
  promolecular density results
     # of electrons  =    158.004736343
     EX              =   -406.132998563
     EC              =     -6.997099042
     EX+EC           =   -413.130097604
Transforming the Hamiltonian                       ... done (   0.0 sec)
Diagonalizing the Hamiltonian                      ... done (   0.0 sec)
Back transforming the eigenvectors                 ... done (   0.0 sec)
Now organizing SCF variables                       ... done
                      ------------------
                      INITIAL GUESS DONE (   1.4 sec)
                      ------------------
-------------------
DFT GRID GENERATION
-------------------

General Integration Accuracy     IntAcc      ... 4.388
Radial Grid Type                 RadialGrid  ... OptM3 with GC (2021)
Angular Grid (max. ang.)         AngularGrid ... 4 (Lebedev-302)
Angular grid pruning method      GridPruning ... 4 (adaptive)
Weight generation scheme         WeightScheme... Becke
Basis function cutoff            BFCut       ... 1.0000e-11
Integration weight cutoff        WCut        ... 1.0000e-14
Angular grids for H and He will be reduced by one unit
Partially contracted basis set               ... off
Rotationally invariant grid construction     ... off

Total number of grid points                  ...    84123
Total number of batches                      ...     1323
Average number of points per batch           ...       63
Average number of grid points per atom       ...     6471
Time for grid setup =    0.638 sec

--------------------
COSX GRID GENERATION
--------------------

GRIDX 1
-------
General Integration Accuracy     IntAcc      ... 3.816
Radial Grid Type                 RadialGrid  ... OptM3 with GC (2021)
Angular Grid (max. ang.)         AngularGrid ... 1 (Lebedev-50)
Angular grid pruning method      GridPruning ... 4 (adaptive)
Weight generation scheme         WeightScheme... Becke
Basis function cutoff            BFCut       ... 1.0000e-11
Integration weight cutoff        WCut        ... 1.0000e-14
Angular grids for H and He will be reduced by one unit
Partially contracted basis set               ... on
Rotationally invariant grid construction     ... off

Total number of grid points                  ...    10314
Total number of batches                      ...      169
Average number of points per batch           ...       61
Average number of grid points per atom       ...      793
UseSFitting                                  ... on

GRIDX 2
-------
General Integration Accuracy     IntAcc      ... 4.020
Radial Grid Type                 RadialGrid  ... OptM3 with GC (2021)
Angular Grid (max. ang.)         AngularGrid ... 2 (Lebedev-110)
Angular grid pruning method      GridPruning ... 4 (adaptive)
Weight generation scheme         WeightScheme... Becke
Basis function cutoff            BFCut       ... 1.0000e-11
Integration weight cutoff        WCut        ... 1.0000e-14
Angular grids for H and He will be reduced by one unit
Partially contracted basis set               ... on
Rotationally invariant grid construction     ... off

Total number of grid points                  ...    25675
Total number of batches                      ...      405
Average number of points per batch           ...       63
Average number of grid points per atom       ...     1975
UseSFitting                                  ... on

GRIDX 3
-------
General Integration Accuracy     IntAcc      ... 4.338
Radial Grid Type                 RadialGrid  ... OptM3 with GC (2021)
Angular Grid (max. ang.)         AngularGrid ... 3 (Lebedev-194)
Angular grid pruning method      GridPruning ... 4 (adaptive)
Weight generation scheme         WeightScheme... Becke
Basis function cutoff            BFCut       ... 1.0000e-11
Integration weight cutoff        WCut        ... 1.0000e-14
Angular grids for H and He will be reduced by one unit
Partially contracted basis set               ... on
Rotationally invariant grid construction     ... off

Total number of grid points                  ...    55495
Total number of batches                      ...      875
Average number of points per batch           ...       63
Average number of grid points per atom       ...     4269
UseSFitting                                  ... on

Time for X-Grid setup             =    1.101 sec

--------------
SCF ITERATIONS
--------------
ITER       Energy         Delta-E        Max-DP      RMS-DP      [F,P]     Damp
               ***  Starting incremental Fock matrix formation  ***
  0   -743.5066091461   0.000000000000 0.60089822  0.00867301  0.7709881 0.7000
  1   -745.1484606709  -1.641851524747 0.34668991  0.00506170  0.2825134 0.7000
                               ***Turning on DIIS***
  2   -745.5032173947  -0.354756723810 0.15904343  0.00247542  0.1322340 0.7000
  3   -745.7145000992  -0.211282704575 0.21250345  0.00544440  0.0845868 0.0000
  4   -746.2863056288  -0.571805529522 0.08631937  0.00146176  0.0979881 0.0000
  5   -746.3469325439  -0.060626915105 0.03991912  0.00057432  0.0121280 0.0000
  6   -746.3491846016  -0.002252057723 0.01313209  0.00018592  0.0090700 0.0000
  7   -746.3497124298  -0.000527828169 0.00519506  0.00008771  0.0037966 0.0000
  8   -746.3497772117  -0.000064781941 0.00256940  0.00003581  0.0008241 0.0000
               *** Restarting incremental Fock matrix formation ***
                                   *** Resetting DIIS ***
  9   -746.3498481980  -0.000070986316 0.00331706  0.00004670  0.0007156 0.0000
 10   -746.3498342174   0.000013980667 0.00141191  0.00001916  0.0020868 0.0000
 11   -746.3498478198  -0.000013602469 0.00116157  0.00001300  0.0008288 0.0000
 12   -746.3498502854  -0.000002465567 0.00008491  0.00000190  0.0000722 0.0000
 13   -746.3498503074  -0.000000021971 0.00003361  0.00000089  0.0000602 0.0000
 14   -746.3498503245  -0.000000017181 0.00001300  0.00000029  0.0000131 0.0000
 15   -746.3498503199   0.000000004625 0.00000694  0.00000017  0.0000106 0.0000
 16   -746.3498503189   0.000000001047 0.00000196  0.00000005  0.0000017 0.0000
                            ***DIIS convergence achieved***

               *****************************************************
               *                     SUCCESS                       *
               *           SCF CONVERGED AFTER  17 CYCLES          *
               *****************************************************

Old exchange energy                            =    -17.365593587 Eh
New exchange energy                            =    -17.365553908 Eh
Exchange energy change after final integration =      0.000039680 Eh
Total energy after final integration           =   -746.349810641 Eh
Final COS-X integration done in                =    10.894 sec

----------------
TOTAL SCF ENERGY
----------------

Total Energy       :         -746.34981064 Eh          -20309.21085 eV

Components:
Nuclear Repulsion  :          755.75550404 Eh           20565.15278 eV
Electronic Energy  :        -1502.10531468 Eh          -40874.36362 eV
One Electron Energy:        -2542.37607652 Eh          -69181.57017 eV
Two Electron Energy:         1040.27076184 Eh           28307.20654 eV
Max COSX asymmetry :            0.00000434 Eh               0.00012 eV

Virial components:
Potential Energy   :        -1444.13648275 Eh          -39296.95151 eV
Kinetic Energy     :          697.78667211 Eh           18987.74067 eV
Virial Ratio       :            2.06959597


DFT components:
N(Alpha)           :       49.000017607980 electrons
N(Beta)            :       49.000017607980 electrons
N(Total)           :       98.000035215961 electrons
E(X)               :      -69.502569556874 Eh       
E(C)               :       -4.046410734395 Eh       
E(XC)              :      -73.548980291269 Eh       
DFET-embed. en.    :        0.000000000000 Eh       

---------------
SCF CONVERGENCE
---------------

  Last Energy change         ...   -2.4099e-09  Tolerance :   1.0000e-08
  Last MAX-Density change    ...    0.0000e+00  Tolerance :   1.0000e-07
  Last RMS-Density change    ...    0.0000e+00  Tolerance :   5.0000e-09
  Last DIIS Error            ...    5.6811e-07  Tolerance :   5.0000e-07

             **** THE GBW FILE WAS UPDATED (WCO6_new.gbw) ****
             **** DENSITY WCO6_new.scfp WAS UPDATED ****
             **** ENERGY FILE WAS UPDATED (WCO6_new.en.tmp) ****
             **** THE GBW FILE WAS UPDATED (WCO6_new.gbw) ****
             **** DENSITY WCO6_new.scfp WAS UPDATED ****
----------------
ORBITAL ENERGIES
----------------

  NO   OCC          E(Eh)            E(eV) 
   0   2.0000     -19.231980      -523.3288 
   1   2.0000     -19.231889      -523.3263 
   2   2.0000     -19.231887      -523.3263 
   3   2.0000     -19.231883      -523.3261 
   4   2.0000     -19.231832      -523.3247 
   5   2.0000     -19.231828      -523.3246 
   6   2.0000     -10.311240      -280.5831 
   7   2.0000     -10.311239      -280.5831 
   8   2.0000     -10.311076      -280.5786 
   9   2.0000     -10.311072      -280.5785 
  10   2.0000     -10.311071      -280.5785 
  11   2.0000     -10.310968      -280.5757 
  12   2.0000      -2.954079       -80.3846 
  13   2.0000      -1.604695       -43.6660 
  14   2.0000      -1.604658       -43.6650 
  15   2.0000      -1.604646       -43.6646 
  16   2.0000      -1.149837       -31.2886 
  17   2.0000      -1.149204       -31.2714 
  18   2.0000      -1.149193       -31.2711 
  19   2.0000      -1.149189       -31.2710 
  20   2.0000      -1.149046       -31.2671 
  21   2.0000      -1.149034       -31.2668 
  22   2.0000      -0.603276       -16.4160 
  23   2.0000      -0.571316       -15.5463 
  24   2.0000      -0.571305       -15.5460 
  25   2.0000      -0.565897       -15.3988 
  26   2.0000      -0.565871       -15.3981 
  27   2.0000      -0.565866       -15.3980 
  28   2.0000      -0.513118       -13.9626 
  29   2.0000      -0.489231       -13.3127 
  30   2.0000      -0.489210       -13.3121 
  31   2.0000      -0.489207       -13.3120 
  32   2.0000      -0.482670       -13.1341 
  33   2.0000      -0.482635       -13.1332 
  34   2.0000      -0.482623       -13.1329 
  35   2.0000      -0.478958       -13.0331 
  36   2.0000      -0.478938       -13.0326 
  37   2.0000      -0.475962       -12.9516 
  38   2.0000      -0.475957       -12.9514 
  39   2.0000      -0.475931       -12.9507 
  40   2.0000      -0.471261       -12.8237 
  41   2.0000      -0.471260       -12.8236 
  42   2.0000      -0.471259       -12.8236 
  43   2.0000      -0.418624       -11.3913 
  44   2.0000      -0.418530       -11.3888 
  45   2.0000      -0.418507       -11.3881 
  46   2.0000      -0.241405        -6.5690 
  47   2.0000      -0.241344        -6.5673 
  48   2.0000      -0.241332        -6.5670 
  49   0.0000      -0.065220        -1.7747 
  50   0.0000      -0.065167        -1.7733 
  51   0.0000      -0.065159        -1.7731 
  52   0.0000      -0.039559        -1.0764 
  53   0.0000      -0.039537        -1.0759 
  54   0.0000      -0.039426        -1.0728 
  55   0.0000       0.006477         0.1762 
  56   0.0000       0.006501         0.1769 
  57   0.0000       0.006502         0.1769 
  58   0.0000       0.029123         0.7925 
  59   0.0000       0.048780         1.3274 
  60   0.0000       0.048785         1.3275 
  61   0.0000       0.048788         1.3276 
  62   0.0000       0.062979         1.7137 
  63   0.0000       0.063037         1.7153 
  64   0.0000       0.063052         1.7157 
  65   0.0000       0.081663         2.2222 
  66   0.0000       0.081665         2.2222 
  67   0.0000       0.260540         7.0896 
  68   0.0000       0.260559         7.0902 
  69   0.0000       0.290910         7.9161 
  70   0.0000       0.356193         9.6925 
  71   0.0000       0.356226         9.6934 
  72   0.0000       0.356249         9.6940 
  73   0.0000       0.407185        11.0801 
  74   0.0000       0.407209        11.0807 
  75   0.0000       0.407306        11.0834 
  76   0.0000       0.443833        12.0773 
  77   0.0000       0.443886        12.0788 
  78   0.0000       0.444086        12.0842 
  79   0.0000       0.444130        12.0854 
  80   0.0000       0.462104        12.5745 
  81   0.0000       0.462154        12.5759 
  82   0.0000       0.511810        13.9271 
  83   0.0000       0.511811        13.9271 
  84   0.0000       0.511823        13.9274 
  85   0.0000       0.562402        15.3037 
  86   0.0000       0.562431        15.3045 
  87   0.0000       0.562529        15.3072 
  88   0.0000       0.589428        16.0391 
  89   0.0000       0.645296        17.5594 
  90   0.0000       0.645306        17.5597 
  91   0.0000       0.645312        17.5598 
  92   0.0000       0.683287        18.5932 
  93   0.0000       0.683399        18.5962 
  94   0.0000       0.683433        18.5972 
  95   0.0000       0.725988        19.7551 
  96   0.0000       0.725996        19.7553 
  97   0.0000       0.725998        19.7554 
  98   0.0000       0.734455        19.9855 
  99   0.0000       0.734459        19.9856 
 100   0.0000       0.740469        20.1492 
 101   0.0000       0.822629        22.3849 
 102   0.0000       0.822665        22.3859 
 103   0.0000       0.822809        22.3898 
 104   0.0000       0.825533        22.4639 
 105   0.0000       0.825535        22.4640 
 106   0.0000       0.907132        24.6843 
 107   0.0000       0.907138        24.6845 
 108   0.0000       0.907165        24.6852 
 109   0.0000       0.942301        25.6413 
 110   0.0000       1.001319        27.2473 
 111   0.0000       1.034295        28.1446 
 112   0.0000       1.034312        28.1451 
 113   0.0000       1.034384        28.1470 
 114   0.0000       1.044636        28.4260 
 115   0.0000       1.044701        28.4278 
 116   0.0000       1.044719        28.4283 
 117   0.0000       1.066484        29.0205 
 118   0.0000       1.066510        29.0212 
 119   0.0000       1.066514        29.0213 
 120   0.0000       1.135718        30.9045 
 121   0.0000       1.135722        30.9046 
 122   0.0000       1.135728        30.9047 
 123   0.0000       1.189295        32.3624 
 124   0.0000       1.190067        32.3834 
 125   0.0000       1.190268        32.3888 
 126   0.0000       1.217886        33.1404 
 127   0.0000       1.217950        33.1421 
 128   0.0000       1.447155        39.3791 
 129   0.0000       1.447182        39.3798 
 130   0.0000       1.498650        40.7803 
 131   0.0000       1.498866        40.7862 
 132   0.0000       1.498921        40.7877 
 133   0.0000       1.590641        43.2836 
 134   0.0000       1.590658        43.2840 
 135   0.0000       1.594078        43.3771 
 136   0.0000       1.609463        43.7957 
 137   0.0000       1.614736        43.9392 
 138   0.0000       1.614762        43.9399 
 139   0.0000       1.614836        43.9419 
 140   0.0000       1.615589        43.9624 
 141   0.0000       1.615593        43.9625 
 142   0.0000       1.615631        43.9635 
 143   0.0000       1.615832        43.9690 
 144   0.0000       1.615833        43.9690 
 145   0.0000       1.615856        43.9697 
 146   0.0000       1.643435        44.7201 
 147   0.0000       1.684007        45.8242 
 148   0.0000       1.684053        45.8254 
 149   0.0000       1.684066        45.8258 
 150   0.0000       1.813756        49.3548 
 151   0.0000       1.813840        49.3571 
 152   0.0000       1.814207        49.3671 
 153   0.0000       1.833505        49.8922 
 154   0.0000       1.833775        49.8996 
 155   0.0000       1.833852        49.9016 
 156   0.0000       1.843957        50.1766 
 157   0.0000       1.844141        50.1816 
 158   0.0000       1.844831        50.2004 
 159   0.0000       1.924994        52.3818 
 160   0.0000       1.925003        52.3820 
 161   0.0000       2.186319        59.4928 
 162   0.0000       2.466411        67.1144 
 163   0.0000       2.466417        67.1146 
 164   0.0000       2.596550        70.6557 
 165   0.0000       2.601380        70.7871 
 166   0.0000       2.601385        70.7873 
 167   0.0000       2.601699        70.7958 
 168   0.0000       2.603584        70.8471 
 169   0.0000       2.603603        70.8476 
 170   0.0000       2.603605        70.8477 
 171   0.0000       2.605001        70.8857 
 172   0.0000       2.605007        70.8858 
 173   0.0000       2.605019        70.8862 
 174   0.0000       2.605022        70.8862 
 175   0.0000       2.610194        71.0270 
 176   0.0000       2.610208        71.0274 
 177   0.0000       3.003127        81.7192 
 178   0.0000       3.003223        81.7219 
 179   0.0000       3.003617        81.7326 
 180   0.0000       3.171716        86.3068 
 181   0.0000       3.171718        86.3068 
 182   0.0000       3.171729        86.3071 
 183   0.0000       3.175629        86.4133 
 184   0.0000       3.175636        86.4134 
 185   0.0000       3.175649        86.4138 
 186   0.0000       3.213621        87.4471 
 187   0.0000       3.213732        87.4501 
 188   0.0000       3.213765        87.4510 
 189   0.0000       3.217544        87.5538 
 190   0.0000       3.217571        87.5546 
 191   0.0000       3.217689        87.5578 
 192   0.0000       3.631676        98.8229 
 193   0.0000       3.631683        98.8231 
 194   0.0000       3.654175        99.4352 
 195   0.0000       3.716227       101.1237 
 196   0.0000       3.716328       101.1264 
 197   0.0000       3.716357       101.1272 
 198   0.0000      68.710141      1869.6980 
 199   0.0000     575.451055     15658.8193 

                    ********************************
                    * MULLIKEN POPULATION ANALYSIS *
                    ********************************

-----------------------
MULLIKEN ATOMIC CHARGES
-----------------------
   0 W :   -0.561721
   1 C :    0.116837
   2 C :    0.117606
   3 C :    0.116920
   4 C :    0.117589
   5 C :    0.116924
   6 C :    0.116846
   7 O :   -0.023564
   8 O :   -0.023461
   9 O :   -0.023596
  10 O :   -0.023408
  11 O :   -0.023490
  12 O :   -0.023480
Sum of atomic charges:   -0.0000000

--------------------------------
MULLIKEN REDUCED ORBITAL CHARGES
--------------------------------
  0 W s       :     2.630076  s :     2.630076
      pz      :     2.089170  p :     6.267569
      px      :     2.089183
      py      :     2.089216
      dz2     :     0.777917  d :     5.615559
      dxz     :     1.342217
      dyz     :     1.364028
      dx2y2   :     0.767378
      dxy     :     1.364020
      f0      :     0.013769  f :     0.048517
      f+1     :     0.006775
      f-1     :     0.006517
      f+2     :     0.002386
      f-2     :     0.000079
      f+3     :     0.009407
      f-3     :     0.009584
  1 C s       :     3.419507  s :     3.419507
      pz      :     0.674731  p :     2.385952
      px      :     1.039860
      py      :     0.671361
      dz2     :     0.005839  d :     0.077705
      dxz     :     0.027648
      dyz     :     0.000502
      dx2y2   :     0.015880
      dxy     :     0.027835
  2 C s       :     3.418929  s :     3.418929
      pz      :     0.671345  p :     2.385771
      px      :     0.671338
      py      :     1.043088
      dz2     :     0.005372  d :     0.077694
      dxz     :     0.000245
      dyz     :     0.028082
      dx2y2   :     0.015915
      dxy     :     0.028080
  3 C s       :     3.419507  s :     3.419507
      pz      :     0.674723  p :     2.385876
      px      :     1.039835
      py      :     0.671317
      dz2     :     0.005840  d :     0.077698
      dxz     :     0.027644
      dyz     :     0.000503
      dx2y2   :     0.015880
      dxy     :     0.027830
  4 C s       :     3.418930  s :     3.418930
      pz      :     0.671317  p :     2.385775
      px      :     0.671317
      py      :     1.043142
      dz2     :     0.005372  d :     0.077706
      dxz     :     0.000246
      dyz     :     0.028087
      dx2y2   :     0.015917
      dxy     :     0.028085
  5 C s       :     3.419511  s :     3.419511
      pz      :     1.039712  p :     2.385874
      px      :     0.674806
      py      :     0.671355
      dz2     :     0.021374  d :     0.077692
      dxz     :     0.027632
      dyz     :     0.027821
      dx2y2   :     0.000356
      dxy     :     0.000509
  6 C s       :     3.419505  s :     3.419505
      pz      :     1.039750  p :     2.385939
      px      :     0.674844
      py      :     0.671345
      dz2     :     0.021376  d :     0.077711
      dxz     :     0.027636
      dyz     :     0.027827
      dx2y2   :     0.000359
      dxy     :     0.000512
  7 O s       :     3.722126  s :     3.722126
      pz      :     1.370245  p :     4.278132
      px      :     1.453532
      py      :     1.454355
      dz2     :     0.009329  d :     0.023306
      dxz     :     0.006953
      dyz     :     0.006886
      dx2y2   :     0.000069
      dxy     :     0.000070
  8 O s       :     3.722050  s :     3.722050
      pz      :     1.454312  p :     4.278097
      px      :     1.454293
      py      :     1.369492
      dz2     :     0.002353  d :     0.023314
      dxz     :     0.000005
      dyz     :     0.006952
      dx2y2   :     0.007051
      dxy     :     0.006953
  9 O s       :     3.722129  s :     3.722129
      pz      :     1.454359  p :     4.278160
      px      :     1.454345
      py      :     1.369457
      dz2     :     0.002352  d :     0.023307
      dxz     :     0.000005
      dyz     :     0.006950
      dx2y2   :     0.007049
      dxy     :     0.006951
 10 O s       :     3.722016  s :     3.722016
      pz      :     1.370301  p :     4.278077
      px      :     1.453469
      py      :     1.454307
      dz2     :     0.009331  d :     0.023315
      dxz     :     0.006956
      dyz     :     0.006888
      dx2y2   :     0.000070
      dxy     :     0.000070
 11 O s       :     3.722085  s :     3.722085
      pz      :     1.453526  p :     4.278095
      px      :     1.370245
      py      :     1.454323
      dz2     :     0.002414  d :     0.023310
      dxz     :     0.006955
      dyz     :     0.000068
      dx2y2   :     0.006985
      dxy     :     0.006888
 12 O s       :     3.722055  s :     3.722055
      pz      :     1.453518  p :     4.278114
      px      :     1.370251
      py      :     1.454345
      dz2     :     0.002414  d :     0.023311
      dxz     :     0.006955
      dyz     :     0.000068
      dx2y2   :     0.006986
      dxy     :     0.006889


                     *******************************
                     * LOEWDIN POPULATION ANALYSIS *
                     *******************************

----------------------
LOEWDIN ATOMIC CHARGES
----------------------
   0 W :   -1.198910
   1 C :    0.139883
   2 C :    0.139972
   3 C :    0.139924
   4 C :    0.139942
   5 C :    0.139936
   6 C :    0.139874
   7 O :    0.059829
   8 O :    0.059951
   9 O :    0.059825
  10 O :    0.059971
  11 O :    0.059899
  12 O :    0.059904

-------------------------------
LOEWDIN REDUCED ORBITAL CHARGES
-------------------------------
  0 W s       :     2.442924  s :     2.442924
      pz      :     2.287412  p :     6.862300
      px      :     2.287438
      py      :     2.287450
      dz2     :     0.926962  d :     5.726502
      dxz     :     1.283965
      dyz     :     1.297791
      dx2y2   :     0.920049
      dxy     :     1.297735
      f0      :     0.049856  f :     0.167185
      f+1     :     0.022788
      f-1     :     0.021871
      f+2     :     0.005817
      f-2     :     0.000168
      f+3     :     0.032979
      f-3     :     0.033705
  1 C s       :     3.137399  s :     3.137399
      pz      :     0.698121  p :     2.556987
      px      :     1.165018
      py      :     0.693848
      dz2     :     0.015228  d :     0.165731
      dxz     :     0.053242
      dyz     :     0.000928
      dx2y2   :     0.043205
      dxy     :     0.053129
  2 C s       :     3.137401  s :     3.137401
      pz      :     0.693810  p :     2.556923
      px      :     0.693829
      py      :     1.169284
      dz2     :     0.014570  d :     0.165703
      dxz     :     0.000434
      dyz     :     0.053596
      dx2y2   :     0.043507
      dxy     :     0.053597
  3 C s       :     3.137460  s :     3.137460
      pz      :     0.698121  p :     2.556909
      px      :     1.165003
      py      :     0.693785
      dz2     :     0.015228  d :     0.165707
      dxz     :     0.053233
      dyz     :     0.000928
      dx2y2   :     0.043201
      dxy     :     0.053116
  4 C s       :     3.137385  s :     3.137385
      pz      :     0.693790  p :     2.556940
      px      :     0.693816
      py      :     1.169335
      dz2     :     0.014572  d :     0.165733
      dxz     :     0.000435
      dyz     :     0.053607
      dx2y2   :     0.043513
      dxy     :     0.053607
  5 C s       :     3.137464  s :     3.137464
      pz      :     1.164860  p :     2.556907
      px      :     0.698215
      py      :     0.693831
      dz2     :     0.057846  d :     0.165693
      dxz     :     0.053218
      dyz     :     0.053101
      dx2y2   :     0.000589
      dxy     :     0.000939
  6 C s       :     3.137398  s :     3.137398
      pz      :     1.164877  p :     2.556984
      px      :     0.698273
      py      :     0.693834
      dz2     :     0.057854  d :     0.165744
      dxz     :     0.053235
      dyz     :     0.053116
      dx2y2   :     0.000595
      dxy     :     0.000945
  7 O s       :     3.503375  s :     3.503375
      pz      :     1.543426  p :     4.400478
      px      :     1.429039
      py      :     1.428013
      dz2     :     0.019499  d :     0.036318
      dxz     :     0.008486
      dyz     :     0.008169
      dx2y2   :     0.000082
      dxy     :     0.000082
  8 O s       :     3.503282  s :     3.503282
      pz      :     1.427933  p :     4.400437
      px      :     1.427933
      py      :     1.544572
      dz2     :     0.004960  d :     0.036330
      dxz     :     0.000006
      dyz     :     0.008245
      dx2y2   :     0.014869
      dxy     :     0.008248
  9 O s       :     3.503356  s :     3.503356
      pz      :     1.427995  p :     4.400499
      px      :     1.427995
      py      :     1.544509
      dz2     :     0.004959  d :     0.036319
      dxz     :     0.000006
      dyz     :     0.008243
      dx2y2   :     0.014867
      dxy     :     0.008245
 10 O s       :     3.503272  s :     3.503272
      pz      :     1.543492  p :     4.400426
      px      :     1.428986
      py      :     1.427948
      dz2     :     0.019501  d :     0.036331
      dxz     :     0.008493
      dyz     :     0.008172
      dx2y2   :     0.000083
      dxy     :     0.000083
 11 O s       :     3.503337  s :     3.503337
      pz      :     1.428989  p :     4.400441
      px      :     1.543487
      py      :     1.427965
      dz2     :     0.004916  d :     0.036323
      dxz     :     0.008483
      dyz     :     0.000080
      dx2y2   :     0.014674
      dxy     :     0.008171
 12 O s       :     3.503308  s :     3.503308
      pz      :     1.428977  p :     4.400462
      px      :     1.543499
      py      :     1.427986
      dz2     :     0.004916  d :     0.036326
      dxz     :     0.008483
      dyz     :     0.000080
      dx2y2   :     0.014675
      dxy     :     0.008172


                      *****************************
                      * MAYER POPULATION ANALYSIS *
                      *****************************

  NA   - Mulliken gross atomic population
  ZA   - Total nuclear charge
  QA   - Mulliken gross atomic charge
  VA   - Mayer's total valence
  BVA  - Mayer's bonded valence
  FA   - Mayer's free valence

  ATOM       NA         ZA         QA         VA         BVA        FA
  0 W     14.5617    14.0000    -0.5617     5.8316     5.8316    -0.0000
  1 C      5.8832     6.0000     0.1168     3.5036     3.5036    -0.0000
  2 C      5.8824     6.0000     0.1176     3.5040     3.5040    -0.0000
  3 C      5.8831     6.0000     0.1169     3.5036     3.5036    -0.0000
  4 C      5.8824     6.0000     0.1176     3.5040     3.5040    -0.0000
  5 C      5.8831     6.0000     0.1169     3.5036     3.5036    -0.0000
  6 C      5.8832     6.0000     0.1168     3.5036     3.5036    -0.0000
  7 O      8.0236     8.0000    -0.0236     2.6205     2.6205    -0.0000
  8 O      8.0235     8.0000    -0.0235     2.6207     2.6207    -0.0000
  9 O      8.0236     8.0000    -0.0236     2.6205     2.6205    -0.0000
 10 O      8.0234     8.0000    -0.0234     2.6207     2.6207    -0.0000
 11 O      8.0235     8.0000    -0.0235     2.6206     2.6206    -0.0000
 12 O      8.0235     8.0000    -0.0235     2.6206     2.6206    -0.0000

  Mayer bond orders larger than 0.100000
B(  0-W ,  1-C ) :   0.8573 B(  0-W ,  2-C ) :   0.8575 B(  0-W ,  3-C ) :   0.8572 
B(  0-W ,  4-C ) :   0.8573 B(  0-W ,  5-C ) :   0.8573 B(  0-W ,  6-C ) :   0.8572 
B(  0-W ,  7-O ) :   0.1146 B(  0-W ,  8-O ) :   0.1146 B(  0-W ,  9-O ) :   0.1147 
B(  0-W , 10-O ) :   0.1146 B(  0-W , 11-O ) :   0.1146 B(  0-W , 12-O ) :   0.1146 
B(  1-C , 12-O ) :   2.4375 B(  2-C ,  9-O ) :   2.4373 B(  3-C , 11-O ) :   2.4375 
B(  4-C ,  8-O ) :   2.4375 B(  5-C ,  7-O ) :   2.4374 B(  6-C , 10-O ) :   2.4376 


-------
TIMINGS
-------

Total SCF time: 0 days 0 hours 1 min 33 sec 

Total time                  ....      93.729 sec
Sum of individual times     ....      93.519 sec  ( 99.8%)

Fock matrix formation       ....      90.015 sec  ( 96.0%)
  Split-RI-J                ....       6.473 sec  (  7.2% of F)
  Chain of spheres X        ....      70.806 sec  ( 78.7% of F)
  XC integration            ....      12.657 sec  ( 14.1% of F)
    Basis function eval.    ....       3.914 sec  ( 30.9% of XC)
    Density eval.           ....       5.254 sec  ( 41.5% of XC)
    XC-Functional eval.     ....       0.645 sec  (  5.1% of XC)
    XC-Potential eval.      ....       2.391 sec  ( 18.9% of XC)
Diagonalization             ....       0.190 sec  (  0.2%)
Density matrix formation    ....       0.012 sec  (  0.0%)
Population analysis         ....       0.017 sec  (  0.0%)
Initial guess               ....       1.220 sec  (  1.3%)
Orbital Transformation      ....       0.000 sec  (  0.0%)
Orbital Orthonormalization  ....       0.000 sec  (  0.0%)
DIIS solution               ....       0.168 sec  (  0.2%)
Grid generation             ....       1.897 sec  (  2.0%)

Maximum memory used throughout the entire SCF-calculation: 104.6 MB

-------------------------   --------------------
FINAL SINGLE POINT ENERGY      -746.349810641442
-------------------------   --------------------

------------------------------------------------------------------------------
                         ORCA SCF GRADIENT CALCULATION
------------------------------------------------------------------------------

 ... reading COSX grid (gridx3)
Gradient of the Kohn-Sham DFT energy:
Kohn-Sham wavefunction type      ... RKS
Hartree-Fock exchange scaling    ...    0.200
Number of operators              ...    1
Number of atoms                  ...   13
Basis set dimensions             ...  200
Integral neglect threshold       ... 2.5e-11
Integral primitive cutoff        ... 2.5e-12
SHARK Integral package           ... ON

Nuc. rep. gradient       (SHARK) ... done (  0.0 sec)
HCore & Overlap gradient (SHARK) ... done (  0.2 sec)
ECP gradient             (SHARK) ... done (  0.8 sec)
RI-J gradient            (SHARK) ... done (  1.7 sec)
COSX-gradient                    ... done ( 14.9 sec)
Exchange-correlation gradient    ... done

------------------
CARTESIAN GRADIENT
------------------

   1   W   :    0.000081710    0.000013305   -0.000029723
   2   C   :    0.043249473   -0.000793379    0.004191732
   3   C   :    0.000757964    0.043279876   -0.000683432
   4   C   :   -0.043197639    0.000782523   -0.004177146
   5   C   :   -0.000840420   -0.043542590    0.000697975
   6   C   :   -0.004276412    0.000835313    0.043047607
   7   C   :    0.004318359   -0.000843651   -0.043375758
   8   O   :    0.004162813   -0.000786161   -0.042540312
   9   O   :    0.000813988    0.043028284   -0.000692910
  10   O   :   -0.000770193   -0.042772165    0.000685558
  11   O   :   -0.004211714    0.000792298    0.042887552
  12   O   :    0.042678589   -0.000742441    0.004139917
  13   O   :   -0.042766325    0.000748445   -0.004150625

Difference to translation invariance:
           :    0.0000001900   -0.0000003433    0.0000004332

Difference to rotation invariance:
           :   -0.0001868797   -0.0004233803   -0.0002078937

Norm of the cartesian gradient     ...    0.1495706826
RMS gradient                       ...    0.0239504773
MAX gradient                       ...    0.0435425896

-------
TIMINGS
-------

Total SCF gradient time            ...       23.750 sec

One electron gradient       ....       0.921 sec  (  3.9%)
RI-J Coulomb gradient       ....       1.750 sec  (  7.4%)
COSX gradient               ....      14.881 sec  ( 62.7%)
XC gradient                 ....       5.544 sec  ( 23.3%)

Maximum memory used throughout the entire SCFGRAD-calculation: 76.9 MB
------------------------------------------------------------------------------
                         ORCA GEOMETRY RELAXATION STEP
------------------------------------------------------------------------------

Reading the OPT-File                    .... done
Getting information on internals        .... done
Copying old internal coords+grads       .... done
Making the new internal coordinates     .... (new redundants).... done
Validating the new internal coordinates .... (new redundants).... done
Calculating the B-matrix                .... done
Calculating the G,G- and P matrices     .... done
Transforming gradient to internals      .... done
Projecting the internal gradient        .... done
Number of atoms                         ....  13
Number of internal coordinates          ....  36
Current Energy                          ....  -746.349810641 Eh
Current gradient norm                   ....     0.149570683 Eh/bohr
Maximum allowed component of the step   ....  0.300
Current trust radius                    ....  0.300
Evaluating the initial hessian          ....  (Almloef) done
Projecting the Hessian                  .... done
Forming the augmented Hessian           .... done
Diagonalizing the augmented Hessian     .... done
Last element of RFO vector              ....  0.997404538
Lowest eigenvalues of augmented Hessian:
 -0.007519802  0.109153490  0.109168108  0.109182902  0.109191970
Length of the computed step             ....  0.072188667
The final length of the internal step   ....  0.072188667
Converting the step to cartesian space:
 Initial RMS(Int)=    0.0120314445
Transforming coordinates:
 Iter   0:  RMS(Cart)=    0.0098896775 RMS(Int)=    0.0120314583
 Iter   1:  RMS(Cart)=    0.0000037013 RMS(Int)=    0.0000030396
 Iter   2:  RMS(Cart)=    0.0000017456 RMS(Int)=    0.0000014112
 Iter   3:  RMS(Cart)=    0.0000008852 RMS(Int)=    0.0000007142
 Iter   4:  RMS(Cart)=    0.0000004482 RMS(Int)=    0.0000003614
 Iter   5:  RMS(Cart)=    0.0000002270 RMS(Int)=    0.0000001829
 Iter   6:  RMS(Cart)=    0.0000001149 RMS(Int)=    0.0000000926
 Iter   7:  RMS(Cart)=    0.0000000582 RMS(Int)=    0.0000000469
done
Storing new coordinates                 .... done

                                .--------------------.
          ----------------------|Geometry convergence|-------------------------
          Item                value                   Tolerance       Converged
          ---------------------------------------------------------------------
          RMS gradient        0.0175245298            0.0001000000      NO
          MAX gradient        0.0431011128            0.0003000000      NO
          RMS step            0.0120314445            0.0020000000      NO
          MAX step            0.0292600100            0.0040000000      NO
          ........................................................
          Max(Bonds)      0.0155      Max(Angles)    0.02
          Max(Dihed)        0.00      Max(Improp)    0.00
          ---------------------------------------------------------------------

The optimization has not yet converged - more geometry cycles are needed


    ---------------------------------------------------------------------------
                         Redundant Internal Coordinates
                            (Angstroem and degrees)

        Definition                    Value    dE/dq     Step     New-Value
    ----------------------------------------------------------------------------
     1. B(C   1,W   0)                2.0948  0.000486 -0.0022    2.0926   
     2. B(C   2,W   0)                2.0948  0.000507 -0.0023    2.0925   
     3. B(C   3,W   0)                2.0949  0.000521 -0.0024    2.0926   
     4. B(C   4,W   0)                2.0949  0.000515 -0.0023    2.0926   
     5. B(C   5,W   0)                2.0948  0.000517 -0.0023    2.0925   
     6. B(C   6,W   0)                2.0948  0.000497 -0.0023    2.0926   
     7. B(O   7,C   5)                1.1281 -0.042751  0.0154    1.1434   
     8. B(O   8,C   4)                1.1279 -0.043042  0.0155    1.1434   
     9. B(O   9,C   2)                1.1281 -0.042785  0.0154    1.1434   
    10. B(O  10,C   6)                1.1279 -0.043101  0.0155    1.1434   
    11. B(O  11,C   3)                1.1280 -0.042885  0.0154    1.1434   
    12. B(O  12,C   1)                1.1280 -0.042974  0.0154    1.1434   
    13. A(C   4,W   0,C   5)           90.03  0.000048   -0.01     90.02   
    14. A(C   3,W   0,C   5)           89.96 -0.000081    0.02     89.97   
    15. A(C   2,W   0,C   3)           89.96 -0.000071    0.01     89.97   
    16. A(C   1,W   0,C   6)           89.94 -0.000077    0.02     89.96   
    17. A(C   2,W   0,C   6)           90.03  0.000066   -0.01     90.02   
    18. A(C   3,W   0,C   6)           90.06  0.000084   -0.02     90.04   
    19. A(C   4,W   0,C   6)           89.97 -0.000051    0.01     89.98   
    20. A(C   3,W   0,C   4)           90.01  0.000009   -0.00     90.01   
    21. A(C   1,W   0,C   2)           90.04  0.000079   -0.02     90.03   
    22. A(C   1,W   0,C   5)           90.04  0.000073   -0.02     90.03   
    23. A(C   1,W   0,C   4)           89.98 -0.000018    0.00     89.99   
    24. A(C   2,W   0,C   5)           89.97 -0.000063    0.01     89.98   
    25. L(W   0,C   1,O  12,C   6, 1) 179.98 -0.000044    0.01    179.98   
    26. L(W   0,C   1,O  12,C   6, 2) 180.02 -0.000003    0.00    180.02   
    27. L(W   0,C   2,O   9,C   3, 2) 179.98 -0.000015    0.00    179.98   
    28. L(W   0,C   2,O   9,C   3, 1) 179.98 -0.000033    0.00    179.99   
    29. L(W   0,C   3,O  11,C   5, 2) 179.98  0.000002   -0.00    179.98   
    30. L(W   0,C   3,O  11,C   5, 1) 179.98 -0.000031    0.00    179.98   
    31. L(W   0,C   4,O   8,C   6, 1) 179.98 -0.000055    0.01    179.99   
    32. L(W   0,C   4,O   8,C   6, 2) 179.99 -0.000021    0.00    179.99   
    33. L(W   0,C   5,O   7,C   3, 2) 180.02 -0.000002    0.00    180.02   
    34. L(W   0,C   5,O   7,C   3, 1) 179.99  0.000021   -0.00    179.99   
    35. L(W   0,C   6,O  10,C   1, 2) 179.98  0.000003   -0.00    179.98   
    36. L(W   0,C   6,O  10,C   1, 1) 179.97 -0.000007    0.00    179.97   
    ----------------------------------------------------------------------------

         *************************************************************
         *                GEOMETRY OPTIMIZATION CYCLE   2            *
         *************************************************************
---------------------------------
CARTESIAN COORDINATES (ANGSTROEM)
---------------------------------
  W     -1.376326    2.567207    0.107143
  C      0.706065    2.531419    0.309988
  C     -1.338088    4.659076    0.073617
  C     -3.458718    2.602948   -0.095757
  C     -1.415025    0.475281    0.140652
  C     -1.579515    2.605060    2.189416
  C     -1.172654    2.529386   -1.975152
  O     -1.690811    2.626061    3.327229
  O     -1.436040   -0.667794    0.158820
  O     -1.317474    5.802181    0.055509
  O     -1.060720    2.508446   -3.112881
  O     -4.596612    2.622741   -0.206327
  O      1.843969    2.511588    0.420463

----------------------------
CARTESIAN COORDINATES (A.U.)
----------------------------
  NO LB      ZA    FRAG     MASS         X           Y           Z
   0 W    14.0000*   0   183.850   -2.600879    4.851318    0.202470
   1 C     6.0000    0    12.011    1.334269    4.783688    0.585792
   2 C     6.0000    0    12.011   -2.528619    8.804378    0.139117
   3 C     6.0000    0    12.011   -6.536031    4.918858   -0.180955
   4 C     6.0000    0    12.011   -2.674010    0.898151    0.265794
   5 C     6.0000    0    12.011   -2.984852    4.922850    4.137397
   6 C     6.0000    0    12.011   -2.215994    4.779847   -3.732496
   7 O     8.0000    0    15.999   -3.195171    4.962535    6.287552
   8 O     8.0000    0    15.999   -2.713723   -1.261947    0.300127
   9 O     8.0000    0    15.999   -2.489665   10.964534    0.104896
  10 O     8.0000    0    15.999   -2.004469    4.740277   -5.882493
  11 O     8.0000    0    15.999   -8.686338    4.956262   -0.389902
  12 O     8.0000    0    15.999    3.484596    4.746213    0.794560
* core charge reduced due to ECP

--------------------------------
INTERNAL COORDINATES (ANGSTROEM)
--------------------------------
 W      0   0   0     0.000000000000     0.00000000     0.00000000
 C      1   0   0     2.092552756409     0.00000000     0.00000000
 C      1   2   0     2.092487744015    90.02665712     0.00000000
 C      1   2   3     2.092559432764   179.99803547   130.00493879
 C      1   2   3     2.092551809606    89.98593476   180.00076447
 C      1   2   3     2.092505990727    90.02742949   270.02100525
 C      1   2   3     2.092573377049    89.95949759    90.01984582
 O      6   1   2     1.143436329889   179.97931122   131.10433349
 O      5   1   2     1.143412297155   179.99030935   307.16454766
 O      3   1   2     1.143434172511   179.98236823   222.39146870
 O      7   1   2     1.143413825094   179.96473989    21.95309919
 O      4   1   3     1.143424367235   179.97997653   310.31342313
 O      2   1   3     1.143426238103   179.97703709   233.97618972

---------------------------
INTERNAL COORDINATES (A.U.)
---------------------------
 W      0   0   0     0.000000000000     0.00000000     0.00000000
 C      1   0   0     3.954351630394     0.00000000     0.00000000
 C      1   2   0     3.954228774776    90.02665712     0.00000000
 C      1   2   3     3.954364246877   179.99803547   130.00493879
 C      1   2   3     3.954349841197    89.98593476   180.00076447
 C      1   2   3     3.954263256064    90.02742949   270.02100525
 C      1   2   3     3.954390597758    89.95949759    90.01984582
 O      6   1   2     2.160781515065   179.97931122   131.10433349
 O      5   1   2     2.160736099781   179.99030935   307.16454766
 O      3   1   2     2.160777438213   179.98236823   222.39146870
 O      7   1   2     2.160738987167   179.96473989    21.95309919
 O      4   1   3     2.160758908927   179.97997653   310.31342313
 O      2   1   3     2.160762444355   179.97703709   233.97618972

------------------------------------------------------------------------------
                   ___                                                        
                  /   \      - P O W E R E D   B Y -                         
                 /     \                                                     
                 |  |  |   _    _      __       _____    __    __             
                 |  |  |  | |  | |    /  \     |  _  \  |  |  /  |          
                  \  \/   | |  | |   /    \    | | | |  |  | /  /          
                 / \  \   | |__| |  /  /\  \   | |_| |  |  |/  /          
                |  |  |   |  __  | /  /__\  \  |    /   |      \           
                |  |  |   | |  | | |   __   |  |    \   |  |\   \          
                \     /   | |  | | |  |  |  |  | |\  \  |  | \   \       
                 \___/    |_|  |_| |__|  |__|  |_| \__\ |__|  \__/        
                                                                              
                      - O R C A' S   B I G   F R I E N D -                    
                                      &                                       
                       - I N T E G R A L  F E E D E R -                       
                                                                              
 v1 FN, 2020, v2 2021                                                         
------------------------------------------------------------------------------


Reading SHARK input file WCO6_new.SHARKINP.tmp ... ok
----------------------
SHARK INTEGRAL PACKAGE
----------------------

Number of atoms                             ...     13
Number of basis functions                   ...    200
Number of shells                            ...     84
Maximum angular momentum                    ...      3
Integral batch strategy                     ... SHARK/LIBINT Hybrid
RI-J (if used) integral strategy            ... SPLIT-RIJ (Revised 2003 algorithm where possible)
Printlevel                                  ...      1
Contraction scheme used                     ... SEGMENTED contraction
Coulomb Range Separation                    ... NOT USED
Exchange Range Separation                   ... NOT USED
Finite Nucleus Model                        ... NOT USED
Auxiliary Coulomb fitting basis             ... AVAILABLE
   # of basis functions in Aux-J            ...    677
   # of shells in Aux-J                     ...    203
   Maximum angular momentum in Aux-J        ...      4
Auxiliary J/K fitting basis                 ... NOT available
Auxiliary Correlation fitting basis         ... NOT available
Auxiliary 'external' fitting basis          ... NOT available
Integral threshold                          ...     2.500000e-11
Primitive cut-off                           ...     2.500000e-12
Primitive pair pre-selection threshold      ...     2.500000e-12

Calculating pre-screening integrals         ... done (  0.0 sec) Dimension = 84
Organizing shell pair data                  ... done (  0.0 sec)
Shell pair information
Total number of shell pairs                 ...      3570
Shell pairs after pre-screening             ...      2979
Total number of primitive shell pairs       ...     13535
Primitive shell pairs kept                  ...      7808
          la=0 lb=0:    708 shell pairs
          la=1 lb=0:    990 shell pairs
          la=1 lb=1:    351 shell pairs
          la=2 lb=0:    432 shell pairs
          la=2 lb=1:    330 shell pairs
          la=2 lb=2:     84 shell pairs
          la=3 lb=0:     42 shell pairs
          la=3 lb=1:     27 shell pairs
          la=3 lb=2:     14 shell pairs
          la=3 lb=3:      1 shell pairs

Calculating one electron integrals          ... done (  0.0 sec)
Calculating ECP integrals                   ... done (  0.2 sec)
Calculating RI/J V-Matrix + Cholesky decomp.... done (  0.0 sec)
Calculating Nuclear repulsion               ... done (  0.0 sec) ENN=    752.839553349612 Eh

SHARK setup successfully completed in   0.4 seconds

Maximum memory used throughout the entire GTOINT-calculation: 40.9 MB

Diagonalization of the overlap matrix:
Smallest eigenvalue                        ... 1.319e-03
Time for diagonalization                   ...    0.005 sec
Threshold for overlap eigenvalues          ... 1.000e-08
Number of eigenvalues below threshold      ... 0
Time for construction of square roots      ...    0.005 sec
Total time needed                          ...    0.011 sec

-------------------
DFT GRID GENERATION
-------------------

General Integration Accuracy     IntAcc      ... 4.388
Radial Grid Type                 RadialGrid  ... OptM3 with GC (2021)
Angular Grid (max. ang.)         AngularGrid ... 4 (Lebedev-302)
Angular grid pruning method      GridPruning ... 4 (adaptive)
Weight generation scheme         WeightScheme... Becke
Basis function cutoff            BFCut       ... 1.0000e-11
Integration weight cutoff        WCut        ... 1.0000e-14
Angular grids for H and He will be reduced by one unit
Partially contracted basis set               ... off
Rotationally invariant grid construction     ... off

Total number of grid points                  ...    84131
Total number of batches                      ...     1323
Average number of points per batch           ...       63
Average number of grid points per atom       ...     6472
[...]
     20      -0.005160  -0.006784  -0.044309  -0.167703  -0.359712  -0.275909
     21      -0.059776  -0.016371  -0.208021  -0.017098  -0.036747  -0.029132
     22      -0.192191   0.091706   0.047507   0.003129   0.006987   0.005352
     23      -0.002666  -0.003421  -0.022835   0.175596   0.376489   0.298149
     24       0.102529   0.187474  -0.043868  -0.004420   0.006326  -0.005586
     25      -0.004017  -0.000785   0.001178  -0.239063   0.341864  -0.299730
     26      -0.184104   0.110060   0.039866   0.003869  -0.005528   0.004877
     27      -0.102540  -0.187486   0.043814   0.004415  -0.006303   0.005599
     28       0.005286   0.002451  -0.001660   0.239080  -0.341869   0.299742
     29       0.184023  -0.110107  -0.040046  -0.003827   0.005472  -0.004837
     30       0.059799   0.016347   0.208156   0.017129   0.036816   0.029175
     31       0.192295  -0.091569  -0.047585  -0.003122  -0.006977  -0.005345
     32       0.002031   0.003237   0.020808  -0.175533  -0.376486  -0.298097
     33       0.003590  -0.002282   0.020754   0.414011   0.036011  -0.297897
     34      -0.085161  -0.197581   0.035957  -0.007200  -0.000491   0.005034
     35      -0.054875  -0.015009  -0.209744   0.040215   0.003182  -0.029327
     36      -0.004046   0.001788  -0.021457  -0.414021  -0.035962   0.297944
     37       0.085283   0.197728  -0.035990   0.007208   0.000491  -0.005034
     38       0.054771   0.014942   0.209494  -0.040192  -0.003185   0.029344
                 24         25         26         27         28         29    
      0       0.000002   0.000000   0.000000   0.000013   0.000020  -0.000006
      1      -0.000000  -0.000008   0.000001  -0.000020   0.000023   0.000015
      2      -0.000013  -0.000002  -0.000000   0.000002   0.000042  -0.000029
      3       0.044712   0.006626   0.013064  -0.012681   0.039201   0.021904
      4      -0.064159   0.290858   0.372786   0.385279   0.073867   0.264487
      5      -0.469943  -0.015859  -0.067643   0.197787  -0.388762  -0.177756
      6      -0.052791   0.326491   0.344197   0.209338   0.217421  -0.364362
      7       0.000362  -0.011331  -0.001095  -0.006779   0.002543   0.008904
      8      -0.034441  -0.347904   0.324985  -0.185328   0.412333   0.139639
      9      -0.044752  -0.006620  -0.013061  -0.012705   0.039209   0.021917
     10       0.064161  -0.290906  -0.372765   0.385285   0.073868   0.264494
     11       0.470078   0.015850   0.067672   0.197735  -0.388673  -0.177710
     12       0.052815  -0.326502  -0.344203   0.209334   0.217420  -0.364348
     13      -0.000359   0.011461   0.001032  -0.006857   0.002691   0.008965
     14       0.034380   0.347930  -0.325018  -0.185240   0.412319   0.139675
     15      -0.471386  -0.018054  -0.056223  -0.196479  -0.256936   0.342340
     16      -0.020953  -0.377669   0.290832  -0.378370  -0.076739  -0.273474
     17      -0.046106   0.005149  -0.010863  -0.012314  -0.023752   0.038440
     18       0.471382   0.018056   0.056222  -0.196513  -0.256837   0.342368
     19       0.020969   0.377754  -0.290934  -0.378281  -0.076745  -0.273428
     20       0.046295  -0.005124   0.010873  -0.012428  -0.023835   0.038571
     21       0.146895   0.005613   0.017510   0.067052   0.087676  -0.116802
     22       0.006505   0.117745  -0.090666   0.129193   0.026196   0.093377
     23       0.013735  -0.001601   0.003315   0.004135   0.008014  -0.013129
     24      -0.016479   0.101804   0.107321  -0.071461  -0.074236   0.124370
     25       0.000199  -0.003921  -0.000374   0.002388  -0.000926  -0.003132
     26      -0.010737  -0.108474   0.101352   0.063247  -0.140761  -0.047678
     27       0.016469  -0.101802  -0.107321  -0.071463  -0.074238   0.124376
     28      -0.000208   0.003903   0.000452   0.002392  -0.000900  -0.003135
     29       0.010762   0.108465  -0.101342   0.063272  -0.140766  -0.047668
     30      -0.146896  -0.005615  -0.017510   0.067060   0.087648  -0.116807
     31      -0.006510  -0.117775   0.090705   0.129167   0.026198   0.093364
     32      -0.013747   0.001597  -0.003314   0.004131   0.008037  -0.013128
     33       0.013927   0.001995   0.004044   0.004216  -0.013347  -0.007456
     34      -0.019996   0.090689   0.116210  -0.131560  -0.025223  -0.090304
     35      -0.146431  -0.004953  -0.021086  -0.067473   0.132624   0.060636
     36      -0.013919  -0.001995  -0.004043   0.004229  -0.013345  -0.007474
     37       0.019996  -0.090673  -0.116224  -0.131562  -0.025224  -0.090304
     38       0.146373   0.004957   0.021074  -0.067489   0.132648   0.060651
                 30         31         32         33         34         35    
      0      -0.018480  -0.031222  -0.069358   0.000058  -0.000053   0.000018
      1      -0.071554  -0.017030   0.026719   0.000003  -0.000021  -0.000077
      2      -0.025756   0.069726  -0.024538   0.000055   0.000057  -0.000014
      3      -0.002213   0.049963   0.002954  -0.438208   0.330156  -0.128002
      4       0.437281   0.106005  -0.155528   0.007664  -0.006172   0.000787
      5       0.145264  -0.438006   0.108180  -0.041774   0.033311  -0.012782
      6       0.104752   0.187817   0.424728   0.000649   0.002305   0.010309
      7       0.016701  -0.005977  -0.011264  -0.022915   0.177682   0.536897
      8       0.163553  -0.422350   0.146809   0.001418  -0.001807  -0.008877
      9      -0.002223   0.049975   0.002960  -0.438152   0.330091  -0.127936
     10       0.437266   0.106001  -0.155525   0.007655  -0.006166   0.000781
     11       0.145242  -0.437952   0.108161  -0.041788   0.033319  -0.012781
     12       0.104744   0.187808   0.424723   0.000648   0.002303   0.010305
     13       0.016750  -0.006113  -0.011224  -0.022991   0.177581   0.536790
     14       0.163500  -0.422345   0.146822   0.001426  -0.001863  -0.009049
     15       0.126652   0.148988   0.431705   0.035678   0.040224  -0.011808
     16       0.432826   0.110986  -0.164468  -0.006434  -0.008168   0.000843
     17       0.010165  -0.003707   0.049046  -0.353331  -0.420919   0.124137
     18       0.126620   0.149029   0.431659   0.035787   0.040343  -0.011848
     19       0.432778   0.110985  -0.164451  -0.006416  -0.008145   0.000836
     20       0.010230  -0.003650   0.049185  -0.353275  -0.420737   0.124135
     21      -0.039587  -0.044045  -0.133228  -0.026390  -0.030350   0.008924
     22      -0.133111  -0.034496   0.050700   0.004822   0.005980  -0.001023
     23       0.003368  -0.017229  -0.010716   0.264480   0.315013  -0.092895
     24      -0.031903  -0.057717  -0.130852  -0.000188  -0.001993  -0.007607
     25       0.013149   0.006744  -0.003116   0.017206  -0.132901  -0.401764
     26      -0.050628   0.129921  -0.045093  -0.000777   0.001679   0.006688
     27      -0.031907  -0.057720  -0.130854  -0.000189  -0.001994  -0.007609
     28       0.013167   0.006702  -0.003096   0.017151  -0.132974  -0.401840
     29      -0.050641   0.129924  -0.045091  -0.000771   0.001637   0.006560
     30      -0.039580  -0.044055  -0.133220  -0.026472  -0.030440   0.008954
     31      -0.133098  -0.034495   0.050695   0.004808   0.005963  -0.001019
     32       0.003356  -0.017249  -0.010741   0.264440   0.314883  -0.092894
     33       0.005631  -0.009220   0.017438   0.327913  -0.247091   0.095757
     34      -0.134680  -0.032739   0.047557  -0.005702   0.004485  -0.000978
     35      -0.044207   0.135325  -0.031489   0.031538  -0.024638   0.009485
     36       0.005623  -0.009215   0.017427   0.327952  -0.247137   0.095805
     37      -0.134684  -0.032741   0.047558  -0.005709   0.004490  -0.000981
     38      -0.044213   0.135335  -0.031498   0.031528  -0.024632   0.009485
                 36         37         38    
      0       0.000000   0.000000  -0.000000
      1       0.000000   0.000000  -0.000000
      2       0.000000  -0.000000  -0.000000
      3       0.444815  -0.141664   0.333593
      4      -0.007694   0.002451  -0.005767
      5       0.043361  -0.013814   0.032526
      6      -0.001855   0.008477   0.006200
      7      -0.100201   0.458075   0.335192
      8       0.001599  -0.007322  -0.005358
      9      -0.444926   0.141671  -0.333596
     10       0.007688  -0.002448   0.005761
     11      -0.043392   0.013821  -0.032540
     12       0.001855  -0.008480  -0.006202
     13       0.100222  -0.458210  -0.335209
     14      -0.001631   0.007472   0.005461
     15       0.033686   0.030701  -0.032577
     16      -0.006313  -0.005752   0.006101
     17      -0.345023  -0.314381   0.333592
     18      -0.033806  -0.030817   0.032682
     19       0.006298   0.005740  -0.006086
     20       0.345108   0.314525  -0.333597
     21      -0.024172  -0.022026   0.022642
     22       0.004528   0.004125  -0.004242
     23       0.247470   0.225493  -0.231800
     24      -0.001328   0.006079   0.004310
     25      -0.071886   0.328661   0.232925
     26       0.001173  -0.005355  -0.003797
     27       0.001327  -0.006077  -0.004309
     28       0.071871  -0.328560  -0.232912
     29      -0.001150   0.005248   0.003723
     30       0.024258   0.022109  -0.022717
     31      -0.004518  -0.004116   0.004231
     32      -0.247534  -0.225602   0.231805
     33       0.319134  -0.101617   0.231805
     34      -0.005514   0.001755  -0.004006
     35       0.031128  -0.009912   0.022611
     36      -0.319050   0.101613  -0.231803
     37       0.005518  -0.001757   0.004010
     38      -0.031106   0.009908  -0.022601


-----------
IR SPECTRUM
-----------

 Mode   freq       eps      Int      T**2         TX        TY        TZ
       cm**-1   L/(mol*cm) km/mol    a.u.
----------------------------------------------------------------------------
  6:     61.37   0.000000    0.00  0.000000  ( 0.000118 -0.000074 -0.000030)
  7:     61.42   0.000000    0.00  0.000000  (-0.000087 -0.000019 -0.000145)
  8:     61.51   0.000000    0.00  0.000000  (-0.000020 -0.000028 -0.000046)
  9:     85.75   0.000076    0.38  0.000275  (-0.010207  0.001021  0.013038)
 10:     85.77   0.000076    0.38  0.000275  ( 0.012928  0.003292  0.009862)
 11:     85.88   0.000075    0.38  0.000274  ( 0.001988 -0.016190  0.002829)
 12:     87.31   0.000000    0.00  0.000000  (-0.000005 -0.000002 -0.000019)
 13:     87.52   0.000000    0.00  0.000000  ( 0.000005 -0.000007 -0.000006)
 14:     87.55   0.000000    0.00  0.000000  ( 0.000005  0.000003  0.000004)
 15:    359.28   0.010850   54.83  0.009424  (-0.087096 -0.003482 -0.042733)
 16:    359.29   0.010855   54.86  0.009428  ( 0.041303  0.019427 -0.085702)
 17:    359.32   0.010859   54.87  0.009431  ( 0.011663 -0.095078 -0.015962)
 18:    360.00   0.000000    0.00  0.000000  (-0.000044  0.000168 -0.000090)
 19:    360.02   0.000000    0.00  0.000000  (-0.000054  0.000175 -0.000029)
 20:    360.09   0.000000    0.00  0.000000  (-0.000063 -0.000063 -0.000261)
 21:    404.44   0.000000    0.00  0.000000  (-0.000000  0.000003  0.000010)
 22:    404.45   0.000000    0.00  0.000000  ( 0.000012  0.000000 -0.000003)
 23:    424.71   0.000000    0.00  0.000000  ( 0.000008  0.000001  0.000009)
 24:    476.92   0.000000    0.00  0.000000  (-0.000003  0.000003  0.000021)
 25:    477.00   0.000000    0.00  0.000000  (-0.000000  0.000015  0.000004)
 26:    477.02   0.000000    0.00  0.000000  (-0.000000 -0.000019  0.000001)
 27:    537.21   0.000000    0.00  0.000000  ( 0.000041  0.000020 -0.000000)
 28:    537.23   0.000000    0.00  0.000000  (-0.000012 -0.000031 -0.000022)
 29:    537.26   0.000000    0.00  0.000000  (-0.000019 -0.000008  0.000097)
 30:    602.30   0.016407   82.91  0.008501  ( 0.021800  0.084303  0.030309)
 31:    602.33   0.016396   82.86  0.008495  ( 0.036759  0.020057 -0.082104)
 32:    602.34   0.016401   82.89  0.008497  ( 0.081658 -0.031483  0.028947)
 33:   2085.85   0.407980  2061.76  0.061038  (-0.176353 -0.009536 -0.172762)
 34:   2085.86   0.408154  2062.64  0.061064  ( 0.163497  0.071733 -0.170842)
 35:   2085.87   0.408183  2062.79  0.061068  (-0.056812  0.236265  0.044932)
 36:   2111.32   0.000000    0.00  0.000000  (-0.000038  0.000003  0.000012)
 37:   2111.32   0.000000    0.00  0.000000  (-0.000017 -0.000030  0.000046)
 38:   2206.97   0.000000    0.00  0.000000  ( 0.000005 -0.000003  0.000002)

* The epsilon (eps) is given for a Dirac delta lineshape.
** The dipole moment derivative (T) already includes vibrational overlap.

The first frequency considered to be a vibration is 6
The total number of vibrations considered is 33


--------------------------
THERMOCHEMISTRY AT 298.15K
--------------------------

Temperature         ... 298.15 K
Pressure            ... 1.00 atm
Total Mass          ... 351.91 AMU

Throughout the following assumptions are being made:
  (1) The electronic state is orbitally nondegenerate
  (2) There are no thermally accessible electronically excited states
  (3) Hindered rotations indicated by low frequency modes are not
      treated as such but are treated as vibrations and this may
      cause some error
  (4) All equations used are the standard statistical mechanics
      equations for an ideal gas
  (5) All vibrations are strictly harmonic

freq.      61.37  E(vib)   ...       0.51 
freq.      61.42  E(vib)   ...       0.51 
freq.      61.51  E(vib)   ...       0.51 
freq.      85.75  E(vib)   ...       0.48 
freq.      85.77  E(vib)   ...       0.48 
freq.      85.88  E(vib)   ...       0.48 
freq.      87.31  E(vib)   ...       0.48 
freq.      87.52  E(vib)   ...       0.48 
freq.      87.55  E(vib)   ...       0.48 
freq.     359.28  E(vib)   ...       0.22 
freq.     359.29  E(vib)   ...       0.22 
freq.     359.32  E(vib)   ...       0.22 
freq.     360.00  E(vib)   ...       0.22 
freq.     360.02  E(vib)   ...       0.22 
freq.     360.09  E(vib)   ...       0.22 
freq.     404.44  E(vib)   ...       0.19 
freq.     404.45  E(vib)   ...       0.19 
freq.     424.71  E(vib)   ...       0.18 
freq.     476.92  E(vib)   ...       0.15 
freq.     477.00  E(vib)   ...       0.15 
freq.     477.02  E(vib)   ...       0.15 
freq.     537.21  E(vib)   ...       0.12 
freq.     537.23  E(vib)   ...       0.12 
freq.     537.26  E(vib)   ...       0.12 
freq.     602.30  E(vib)   ...       0.10 
freq.     602.33  E(vib)   ...       0.10 
freq.     602.34  E(vib)   ...       0.10 
freq.    2085.85  E(vib)   ...       0.00 
freq.    2085.86  E(vib)   ...       0.00 
freq.    2085.87  E(vib)   ...       0.00 
freq.    2111.32  E(vib)   ...       0.00 
freq.    2111.32  E(vib)   ...       0.00 
freq.    2206.97  E(vib)   ...       0.00 

------------
INNER ENERGY
------------

The inner energy is: U= E(el) + E(ZPE) + E(vib) + E(rot) + E(trans)
    E(el)   - is the total energy from the electronic structure calculation
              = E(kin-el) + E(nuc-el) + E(el-el) + E(nuc-nuc)
    E(ZPE)  - the the zero temperature vibrational energy from the frequency calculation
    E(vib)  - the the finite temperature correction to E(ZPE) due to population
              of excited vibrational states
    E(rot)  - is the rotational thermal energy
    E(trans)- is the translational thermal energy

Summary of contributions to the inner energy U:
Electronic energy                ...   -746.35401118 Eh
Zero point energy                ...      0.04928231 Eh      30.93 kcal/mol
Thermal vibrational correction   ...      0.01179500 Eh       7.40 kcal/mol
Thermal rotational correction    ...      0.00141627 Eh       0.89 kcal/mol
Thermal translational correction ...      0.00141627 Eh       0.89 kcal/mol
-----------------------------------------------------------------------
Total thermal energy                   -746.29010133 Eh


Summary of corrections to the electronic energy:
(perhaps to be used in another calculation)
Total thermal correction                  0.01462754 Eh       9.18 kcal/mol
Non-thermal (ZPE) correction              0.04928231 Eh      30.93 kcal/mol
-----------------------------------------------------------------------
Total correction                          0.06390985 Eh      40.10 kcal/mol


--------
ENTHALPY
--------

The enthalpy is H = U + kB*T
                kB is Boltzmann's constant
Total free energy                 ...   -746.29010133 Eh 
Thermal Enthalpy correction       ...      0.00094421 Eh       0.59 kcal/mol
-----------------------------------------------------------------------
Total Enthalpy                    ...   -746.28915712 Eh


Note: Only C1 symmetry has been detected, increase convergence thresholds 
      if your molecule has a higher symmetry. Symmetry factor of 1.0 is   
      used for the rotational entropy correction. 
 

Note: Rotational entropy computed according to Herzberg 
Infrared and Raman Spectra, Chapter V,1, Van Nostrand Reinhold, 1945 
Point Group:  C1, Symmetry Number:   1  
Rotational constants in cm-1:     0.019142     0.019136     0.019134 

Vibrational entropy computed according to the QRRHO of S. Grimme
Chem.Eur.J. 2012 18 9955


-------
ENTROPY
-------

The entropy contributions are T*S = T*(S(el)+S(vib)+S(rot)+S(trans))
     S(el)   - electronic entropy
     S(vib)  - vibrational entropy
     S(rot)  - rotational entropy
     S(trans)- translational entropy
The entropies will be listed as multiplied by the temperature to get
units of energy

Electronic entropy                ...      0.00000000 Eh      0.00 kcal/mol
Vibrational entropy               ...      0.02126170 Eh     13.34 kcal/mol
Rotational entropy                ...      0.01511373 Eh      9.48 kcal/mol
Translational entropy             ...      0.02065320 Eh     12.96 kcal/mol
-----------------------------------------------------------------------
Final entropy term                ...      0.05702864 Eh     35.79 kcal/mol

In case the symmetry of your molecule has not been determined correctly
or in case you have a reason to use a different symmetry number we print 
out the resulting rotational entropy values for sn=1,12 :
 --------------------------------------------------------
|  sn= 1 | S(rot)=       0.01511373 Eh      9.48 kcal/mol|
|  sn= 2 | S(rot)=       0.01445927 Eh      9.07 kcal/mol|
|  sn= 3 | S(rot)=       0.01407644 Eh      8.83 kcal/mol|
|  sn= 4 | S(rot)=       0.01380482 Eh      8.66 kcal/mol|
|  sn= 5 | S(rot)=       0.01359413 Eh      8.53 kcal/mol|
|  sn= 6 | S(rot)=       0.01342198 Eh      8.42 kcal/mol|
|  sn= 7 | S(rot)=       0.01327644 Eh      8.33 kcal/mol|
|  sn= 8 | S(rot)=       0.01315036 Eh      8.25 kcal/mol|
|  sn= 9 | S(rot)=       0.01303915 Eh      8.18 kcal/mol|
|  sn=10 | S(rot)=       0.01293967 Eh      8.12 kcal/mol|
|  sn=11 | S(rot)=       0.01284968 Eh      8.06 kcal/mol|
|  sn=12 | S(rot)=       0.01276753 Eh      8.01 kcal/mol|
 --------------------------------------------------------


-------------------
GIBBS FREE ENERGY
-------------------

The Gibbs free energy is G = H - T*S

Total enthalpy                    ...   -746.28915712 Eh 
Total entropy correction          ...     -0.05702864 Eh    -35.79 kcal/mol
-----------------------------------------------------------------------
Final Gibbs free energy         ...   -746.34618576 Eh

For completeness - the Gibbs free energy minus the electronic energy
G-E(el)                           ...      0.00782543 Eh      4.91 kcal/mol


Timings for individual modules:

Sum of individual times         ...     1037.102 sec (=  17.285 min)
GTO integral calculation        ...        2.034 sec (=   0.034 min)   0.2 %
SCF iterations                  ...      333.330 sec (=   5.555 min)  32.1 %
SCF Gradient evaluation         ...       94.992 sec (=   1.583 min)   9.2 %
Geometry relaxation             ...        0.142 sec (=   0.002 min)   0.0 %
Analytical frequency calculation...      606.604 sec (=  10.110 min)  58.5 %
                             ****ORCA TERMINATED NORMALLY****
TOTAL RUN TIME: 0 days 0 hours 17 minutes 17 seconds 732 msec
