13
	Energy:      -2.1454599
W         -1.37621        2.56722        0.10711
C          0.70839        2.53117        0.30993
C         -1.33834        4.66140        0.07376
C         -3.46098        2.60316       -0.09572
C         -1.41502        0.47296        0.14051
C         -1.57994        2.60535        2.19168
C         -1.17198        2.52910       -1.97739
O         -1.68985        2.62619        3.31419
O         -1.43573       -0.65466        0.15820
O         -1.31832        5.78914        0.05603
O         -1.06136        2.50831       -3.09969
O         -4.58356        2.62277       -0.20455
O          1.83095        2.51149        0.41866
