
                                 *****************
                                 * O   R   C   A *
                                 *****************

                                            #,                                       
                                            ###                                      
                                            ####                                     
                                            #####                                    
                                            ######                                   
                                           ########,                                 
                                     ,,################,,,,,                         
                               ,,#################################,,                 
                          ,,##########################################,,             
                       ,#########################################, ''#####,          
                    ,#############################################,,   '####,        
                  ,##################################################,,,,####,       
                ,###########''''           ''''###############################       
              ,#####''   ,,,,##########,,,,          '''####'''          '####       
            ,##' ,,,,###########################,,,                        '##       
           ' ,,###''''                  '''############,,,                           
         ,,##''                                '''############,,,,        ,,,,,,###''
      ,#''                                            '''#######################'''  
     '                                                          ''''####''''         
             ,#######,   #######,   ,#######,      ##                                
            ,#'     '#,  ##    ##  ,#'     '#,    #''#        ######   ,####,        
            ##       ##  ##   ,#'  ##            #'  '#       #        #'  '#        
            ##       ##  #######   ##           ,######,      #####,   #    #        
            '#,     ,#'  ##    ##  '#,     ,#' ,#      #,         ##   #,  ,#        
             '#######'   ##     ##  '#######'  #'      '#     #####' # '####'        



                  #######################################################
                  #                        -***-                        #
                  #          Department of theory and spectroscopy      #
                  #    Directorship and core code : Frank Neese         #
                  #        Max Planck Institute fuer Kohlenforschung    #
                  #                Kaiser Wilhelm Platz 1               #
                  #                 D-45470 Muelheim/Ruhr               #
                  #                      Germany                        #
                  #                                                     #
                  #                  All rights reserved                #
                  #                        -***-                        #
                  #######################################################



                         Program Version 5.0.4 -  RELEASE  -

 With contributions from (in alphabetic order):
   Daniel Aravena         : Magnetic Suceptibility
   Michael Atanasov       : Ab Initio Ligand Field Theory (pilot matlab implementation)
   Alexander A. Auer      : GIAO ZORA, VPT2 properties, NMR spectrum
   Ute Becker             : Parallelization
   Giovanni Bistoni       : ED, misc. LED, open-shell LED, HFLD
   Martin Brehm           : Molecular dynamics
   Dmytro Bykov           : SCF Hessian
   Vijay G. Chilkuri      : MRCI spin determinant printing, contributions to CSF-ICE
   Dipayan Datta          : RHF DLPNO-CCSD density
   Achintya Kumar Dutta   : EOM-CC, STEOM-CC
   Dmitry Ganyushin       : Spin-Orbit,Spin-Spin,Magnetic field MRCI
   Miquel Garcia          : C-PCM and meta-GGA Hessian, CC/C-PCM, Gaussian charge scheme
   Yang Guo               : DLPNO-NEVPT2, F12-NEVPT2, CIM, IAO-localization
   Andreas Hansen         : Spin unrestricted coupled pair/coupled cluster methods
   Benjamin Helmich-Paris : MC-RPA, TRAH-SCF, COSX integrals
   Lee Huntington         : MR-EOM, pCC
   Robert Izsak           : Overlap fitted RIJCOSX, COSX-SCS-MP3, EOM
   Marcus Kettner         : VPT2
   Christian Kollmar      : KDIIS, OOCD, Brueckner-CCSD(T), CCSD density, CASPT2, CASPT2-K
   Simone Kossmann        : Meta GGA functionals, TD-DFT gradient, OOMP2, MP2 Hessian
   Martin Krupicka        : Initial AUTO-CI
   Lucas Lang             : DCDCAS
   Marvin Lechner         : AUTO-CI (C++ implementation), FIC-MRCC
   Dagmar Lenk            : GEPOL surface, SMD
   Dimitrios Liakos       : Extrapolation schemes; Compound Job, initial MDCI parallelization
   Dimitrios Manganas     : Further ROCIS development; embedding schemes
   Dimitrios Pantazis     : SARC Basis sets
   Anastasios Papadopoulos: AUTO-CI, single reference methods and gradients
   Taras Petrenko         : DFT Hessian,TD-DFT gradient, ASA, ECA, R-Raman, ABS, FL, XAS/XES, NRVS
   Peter Pinski           : DLPNO-MP2, DLPNO-MP2 Gradient
   Christoph Reimann      : Effective Core Potentials
   Marius Retegan         : Local ZFS, SOC
   Christoph Riplinger    : Optimizer, TS searches, QM/MM, DLPNO-CCSD(T), (RO)-DLPNO pert. Triples
   Tobias Risthaus        : Range-separated hybrids, TD-DFT gradient, RPA, STAB
   Michael Roemelt        : Original ROCIS implementation
   Masaaki Saitow         : Open-shell DLPNO-CCSD energy and density
   Barbara Sandhoefer     : DKH picture change effects
   Avijit Sen             : IP-ROCIS
   Kantharuban Sivalingam : CASSCF convergence, NEVPT2, FIC-MRCI
   Bernardo de Souza      : ESD, SOC TD-DFT
   Georgi Stoychev        : AutoAux, RI-MP2 NMR, DLPNO-MP2 response
   Willem Van den Heuvel  : Paramagnetic NMR
   Boris Wezisla          : Elementary symmetry handling
   Frank Wennmohs         : Technical directorship


 We gratefully acknowledge several colleagues who have allowed us to
 interface, adapt or use parts of their codes:
   Stefan Grimme, W. Hujo, H. Kruse, P. Pracht,  : VdW corrections, initial TS optimization,
                  C. Bannwarth, S. Ehlert          DFT functionals, gCP, sTDA/sTD-DF
   Ed Valeev, F. Pavosevic, A. Kumar             : LibInt (2-el integral package), F12 methods
   Garnet Chan, S. Sharma, J. Yang, R. Olivares  : DMRG
   Ulf Ekstrom                                   : XCFun DFT Library
   Mihaly Kallay                                 : mrcc  (arbitrary order and MRCC methods)
   Jiri Pittner, Ondrej Demel                    : Mk-CCSD
   Frank Weinhold                                : gennbo (NPA and NBO analysis)
   Christopher J. Cramer and Donald G. Truhlar   : smd solvation model
   Lars Goerigk                                  : TD-DFT with DH, B97 family of functionals
   V. Asgeirsson, H. Jonsson                     : NEB implementation
   FAccTs GmbH                                   : IRC, NEB, NEB-TS, DLPNO-Multilevel, CI-OPT
                                                   MM, QMMM, 2- and 3-layer-ONIOM, Crystal-QMMM,
                                                   LR-CPCM, SF, NACMEs, symmetry and pop. for TD-DFT,
                                                   nearIR, NL-DFT gradient (VV10), updates on ESD,
                                                   ML-optimized integration grids
   S Lehtola, MJT Oliveira, MAL Marques          : LibXC Library
   Liviu Ungur et al                             : ANISO software


 Your calculation uses the libint2 library for the computation of 2-el integrals
 For citations please refer to: http://libint.valeyev.net

 Your ORCA version has been built with support for libXC version: 5.1.0
 For citations please refer to: https://tddft.org/programs/libxc/

 This ORCA versions uses:
   CBLAS   interface :  Fast vector & matrix operations
   LAPACKE interface :  Fast linear algebra routines
   Shared memory     :  Shared parallel matrices


================================================================================

cite the ECPs for Hf [Def2-ECP] as follows:
Ce-Yb(ecp-28): M. Dolg, H. Stoll, H.Preuss, J. Chem. Phys., 1989, 90, 1730-1734.
Y-Cd(ecp-28), Hf-Hg(ecp-46): D. Andrae,U. Haeussermann, M. Dolg, H. Stoll, H. Preuss, Theor. Chim. Acta, 1990, 77, 123-141.
In-Sb(ecp-28), Tl-Bi(ecp-46): B. Metz, H. Stoll, M. Dolg, J. Chem. Phys., 2000, 113, 2563-2569.
Te-Xe(ecp-28), Po-Rn(ecp-46): K. A. Peterson, D. Figgen, E. Goll, H. Stoll, M. Dolg, J. Chem. Phys., 2003, 119, 11113-11123.
Rb(ecp-28), Cs(ecp-46): T. Leininger, A. Nicklass, W. Kuechle, H. Stoll, M. Dolg, A. Bergner, Chem. Phys. Lett., 1996, 255, 274-280.
Sr(ecp-28), Ba(ecp-46): M. Kaupp, P. V. Schleyer, H. Stoll and H. Preuss, J. Chem. Phys., 1991, 94, 1360-1366.
La(ecp-46): M. Dolg, H. Stoll, A. Savin, H. Preuss, Theor. Chim. Acta, 1989, 75, 173-194.
Lu(ecp-28): X. Cao, M. Dolg, J. Chem. Phys., 2001, 115, 7348-7355.

ECP parameters for Hf [Def2-ECP] have been obtained from:
TURBOMOLE (7.0.2)

----- Orbital basis set information -----
Your calculation utilizes the basis: def2-TZVPD
   F. Weigend and R. Ahlrichs, Phys. Chem. Chem. Phys. 7, 3297 (2005).
   D. Rappoport and F. Furche, J. Chem. Phys. 133 134105 (2010).

----- AuxJ basis set information -----
Your calculation utilizes the auxiliary basis: def2/J
   F. Weigend, Phys. Chem. Chem. Phys. 8, 1057 (2006).

================================================================================
                                        WARNINGS
                       Please study these warnings very carefully!
================================================================================


WARNING: your system is open-shell and RHF/RKS was chosen
  ===> : WILL SWITCH to UHF/UKS


WARNING: Geometry Optimization
  ===> : Switching off AutoStart
         For restart on a previous wavefunction, please use MOREAD

INFO   : the flag for use of the SHARK integral package has been found!

================================================================================
                                       INPUT FILE
================================================================================
NAME = HfCO6+.inp
|  1> !B3LYP def2-TZVPD OPT FREQ TightSCF PAL8

|  2> 

|  3> %scf

|  4>   MaxIter 300

|  5> end

|  6> 

|  7> * xyz 1 4 

|  8> Hf        -0.43733        0.82114       -0.00327

|  9> C          1.85069        0.75179       -0.21043

| 10> C         -0.36713        3.11851        0.00002

| 11> C         -2.72538        0.89099        0.20388

| 12> C         -0.50743       -1.47623       -0.00656

| 13> O         -0.33267        4.24599        0.00163

| 14> O          2.97368        0.71783       -0.31146

| 15> O         -0.54180       -2.60370       -0.00817

| 16> O         -3.84828        0.92536        0.30489

| 17> C         -0.64818        0.83067       -2.29202

| 18> C         -0.22660        0.81111        2.28546

| 19> O         -0.75232        0.83529       -3.41517

| 20> O         -0.12255        0.80608        3.40866

| 21> **                         ****END OF INPUT****
================================================================================

                       *****************************
                       * Geometry Optimization Run *
                       *****************************

Geometry optimization settings:
Update method            Update   .... BFGS
Choice of coordinates    CoordSys .... Z-matrix Internals
Initial Hessian          InHess   .... Almoef's Model

Convergence Tolerances:
Energy Change            TolE     ....  5.0000e-06 Eh
Max. Gradient            TolMAXG  ....  3.0000e-04 Eh/bohr
RMS Gradient             TolRMSG  ....  1.0000e-04 Eh/bohr
Max. Displacement        TolMAXD  ....  4.0000e-03 bohr
RMS Displacement         TolRMSD  ....  2.0000e-03 bohr
Strict Convergence                ....  False
------------------------------------------------------------------------------
                        ORCA OPTIMIZATION COORDINATE SETUP
------------------------------------------------------------------------------

The optimization will be done in new redundant internal coordinates
Making redundant internal coordinates   ...  (new redundants) done
Evaluating the initial hessian          ...  (Almloef) done
Evaluating the coordinates              ...  done
Calculating the B-matrix                .... done
Calculating the G-matrix                .... done
Diagonalizing the G-matrix              .... done
The first mode is                       ....    3
The number of degrees of freedom        ....   33

    -----------------------------------------------------------------
                    Redundant Internal Coordinates


    -----------------------------------------------------------------
         Definition                    Initial Value    Approx d2E/dq
    -----------------------------------------------------------------
      1. B(C   1,Hf  0)                  2.2984         0.051684   
      2. B(C   2,Hf  0)                  2.2984         0.051680   
      3. B(C   3,Hf  0)                  2.2985         0.051675   
      4. B(C   4,Hf  0)                  2.2984         0.051681   
      5. B(O   5,C   2)                  1.1280         1.465101   
      6. B(O   6,C   1)                  1.1280         1.464944   
      7. B(O   7,C   4)                  1.1280         1.465170   
      8. B(O   8,C   3)                  1.1280         1.465369   
      9. B(C   9,Hf  0)                  2.2985         0.051677   
     10. B(C  10,Hf  0)                  2.2984         0.051682   
     11. B(O  11,C   9)                  1.1280         1.465265   
     12. B(O  12,C  10)                  1.1280         1.465032   
     13. A(C   3,Hf  0,C   9)           89.9025         0.214951   
     14. A(C   2,Hf  0,C   9)           90.0047         0.214953   
     15. A(C   1,Hf  0,C  10)           89.9055         0.214958   
     16. A(C   4,Hf  0,C  10)           89.9920         0.214957   
     17. A(C   2,Hf  0,C  10)           90.0078         0.214956   
     18. A(C   4,Hf  0,C   9)           89.9955         0.214953   
     19. A(C   3,Hf  0,C  10)           90.0949         0.214954   
     20. A(C   3,Hf  0,C   4)           90.0082         0.214953   
     21. A(C   1,Hf  0,C   2)           89.9933         0.214957   
     22. A(C   2,Hf  0,C   3)           89.9942         0.214952   
     23. A(C   1,Hf  0,C   4)           90.0042         0.214957   
     24. A(C   1,Hf  0,C   9)           90.0971         0.214955   
     25. L(Hf  0,C   1,O   6,C  10, 1) 179.9673         0.340188   
     26. L(Hf  0,C   1,O   6,C  10, 2) 180.0057         0.340188   
     27. L(Hf  0,C   2,O   5,C   1, 2) 179.9997         0.340190   
     28. L(Hf  0,C   2,O   5,C   1, 1) 179.9996         0.340190   
     29. L(Hf  0,C   3,O   8,C   9, 2) 180.0064         0.340195   
     30. L(Hf  0,C   3,O   8,C   9, 1) 179.9670         0.340195   
     31. L(Hf  0,C   4,O   7,C  10, 2) 180.0023         0.340193   
     32. L(Hf  0,C   4,O   7,C  10, 1) 179.9996         0.340193   
     33. L(Hf  0,C   9,O  11,C   3, 2) 180.0055         0.340193   
     34. L(Hf  0,C   9,O  11,C   3, 1) 179.9662         0.340193   
     35. L(Hf  0,C  10,O  12,C   1, 2) 180.0063         0.340190   
     36. L(Hf  0,C  10,O  12,C   1, 1) 179.9678         0.340190   
    -----------------------------------------------------------------

Number of atoms                         .... 13
Number of degrees of freedom            .... 36

         *************************************************************
         *                GEOMETRY OPTIMIZATION CYCLE   1            *
         *************************************************************
---------------------------------
CARTESIAN COORDINATES (ANGSTROEM)
---------------------------------
  Hf    -0.437330    0.821140   -0.003270
  C      1.850690    0.751790   -0.210430
  C     -0.367130    3.118510    0.000020
  C     -2.725380    0.890990    0.203880
  C     -0.507430   -1.476230   -0.006560
  O     -0.332670    4.245990    0.001630
  O      2.973680    0.717830   -0.311460
  O     -0.541800   -2.603700   -0.008170
  O     -3.848280    0.925360    0.304890
  C     -0.648180    0.830670   -2.292020
  C     -0.226600    0.811110    2.285460
  O     -0.752320    0.835290   -3.415170
  O     -0.122550    0.806080    3.408660

----------------------------
CARTESIAN COORDINATES (A.U.)
----------------------------
  NO LB      ZA    FRAG     MASS         X           Y           Z
   0 Hf   12.0000*   0   178.490   -0.826434    1.551730   -0.006179
   1 C     6.0000    0    12.011    3.497297    1.420677   -0.397655
   2 C     6.0000    0    12.011   -0.693775    5.893130    0.000038
   3 C     6.0000    0    12.011   -5.150222    1.683727    0.385277
   4 C     6.0000    0    12.011   -0.958904   -2.789670   -0.012397
   5 O     8.0000    0    15.999   -0.628655    8.023758    0.003080
   6 O     8.0000    0    15.999    5.619441    1.356502   -0.588574
   7 O     8.0000    0    15.999   -1.023854   -4.920280   -0.015439
   8 O     8.0000    0    15.999   -7.272195    1.748677    0.576159
   9 C     6.0000    0    12.011   -1.224883    1.569739   -4.331290
  10 C     6.0000    0    12.011   -0.428212    1.532776    4.318893
  11 O     8.0000    0    15.999   -1.421679    1.578469   -6.453736
  12 O     8.0000    0    15.999   -0.231586    1.523270    6.441434
* core charge reduced due to ECP

--------------------------------
INTERNAL COORDINATES (ANGSTROEM)
--------------------------------
 Hf     0   0   0     0.000000000000     0.00000000     0.00000000
 C      1   0   0     2.298425593423     0.00000000     0.00000000
 C      1   2   0     2.298444643884    89.99333164     0.00000000
 C      1   2   3     2.298469696885   179.98755957     1.69360706
 C      1   2   3     2.298441591818    90.00418684   180.00022447
 O      3   1   2     1.128007639203   179.99953259    25.06024110
 O      2   1   3     1.128036738143   179.96705257    83.02433160
 O      5   1   2     1.127994897994   179.99832515    13.22061986
 O      4   1   2     1.127957768270   179.96666714    80.51700504
 C      1   2   3     2.298461464959    90.09709529    90.00473603
 C      1   2   3     2.298432671779    89.90546033   269.99218602
 O     10   1   2     1.127977130309   179.96597053   173.40112571
 O     11   1   2     1.128020364798   179.96748502   352.06131053

---------------------------
INTERNAL COORDINATES (A.U.)
---------------------------
 Hf     0   0   0     0.000000000000     0.00000000     0.00000000
 C      1   0   0     4.343394910764     0.00000000     0.00000000
 C      1   2   0     4.343430910919    89.99333164     0.00000000
 C      1   2   3     4.343478254230   179.98755957     1.69360706
 C      1   2   3     4.343425143351    90.00418684   180.00022447
 O      3   1   2     2.131625515064   179.99953259    25.06024110
 O      2   1   3     2.131680504092   179.96705257    83.02433160
 O      5   1   2     2.131601437669   179.99832515    13.22061986
 O      4   1   2     2.131531272659   179.96666714    80.51700504
 C      1   2   3     4.343462698143    90.09709529    90.00473603
 C      1   2   3     4.343408286919    89.90546033   269.99218602
 O     10   1   2     2.131567861610   179.96597053   173.40112571
 O     11   1   2     2.131649562955   179.96748502   352.06131053

---------------------
BASIS SET INFORMATION
---------------------
There are 3 groups of distinct atoms

 Group   1 Type Hf  : 9s8p5d1f contracted to 6s5p3d1f pattern {411111/41111/311/1}
 Group   2 Type C   : 12s6p3d1f contracted to 6s3p3d1f pattern {621111/411/111/1}
 Group   3 Type O   : 12s7p3d1f contracted to 6s4p3d1f pattern {621111/4111/111/1}

Atom   0Hf   basis set group =>   1
Atom   1C    basis set group =>   2
Atom   2C    basis set group =>   2
Atom   3C    basis set group =>   2
Atom   4C    basis set group =>   2
Atom   5O    basis set group =>   3
Atom   6O    basis set group =>   3
Atom   7O    basis set group =>   3
Atom   8O    basis set group =>   3
Atom   9C    basis set group =>   2
Atom  10C    basis set group =>   2
Atom  11O    basis set group =>   3
Atom  12O    basis set group =>   3
---------------------------------
AUXILIARY/J BASIS SET INFORMATION
---------------------------------
There are 3 groups of distinct atoms

 Group   1 Type Hf  : 11s5p5d3f3g contracted to 8s5p5d2f3g pattern {41111111/11111/11111/21/111}
 Group   2 Type C   : 12s5p4d2f1g contracted to 6s4p3d1f1g pattern {711111/2111/211/2/1}
 Group   3 Type O   : 12s5p4d2f1g contracted to 6s4p3d1f1g pattern {711111/2111/211/2/1}

Atom   0Hf   basis set group =>   1
Atom   1C    basis set group =>   2
Atom   2C    basis set group =>   2
Atom   3C    basis set group =>   2
Atom   4C    basis set group =>   2
Atom   5O    basis set group =>   3
Atom   6O    basis set group =>   3
Atom   7O    basis set group =>   3
Atom   8O    basis set group =>   3
Atom   9C    basis set group =>   2
Atom  10C    basis set group =>   2
Atom  11O    basis set group =>   3
Atom  12O    basis set group =>   3
-------------------------
ECP PARAMETER INFORMATION
-------------------------

 Group 1, Type Hf ECP Def2-ECP (replacing 60 core electrons, lmax=3)

Atom   0Hf   ECP group =>   1



           ************************************************************
           *        Program running with 8 parallel MPI-processes     *
           *              working on a common directory               *
           ************************************************************
------------------------------------------------------------------------------
                           ORCA GTO INTEGRAL CALCULATION
                           -- RI-GTO INTEGRALS CHOSEN --
------------------------------------------------------------------------------
------------------------------------------------------------------------------
                   ___                                                        
                  /   \      - P O W E R E D   B Y -                         
                 /     \                                                     
                 |  |  |   _    _      __       _____    __    __             
                 |  |  |  | |  | |    /  \     |  _  \  |  |  /  |          
                  \  \/   | |  | |   /    \    | | | |  |  | /  /          
                 / \  \   | |__| |  /  /\  \   | |_| |  |  |/  /          
                |  |  |   |  __  | /  /__\  \  |    /   |      \           
                |  |  |   | |  | | |   __   |  |    \   |  |\   \          
                \     /   | |  | | |  |  |  |  | |\  \  |  | \   \       
                 \___/    |_|  |_| |__|  |__|  |_| \__\ |__|  \__/        
                                                                              
                      - O R C A' S   B I G   F R I E N D -                    
                                      &                                       
                       - I N T E G R A L  F E E D E R -                       
                                                                              
 v1 FN, 2020, v2 2021                                                         
------------------------------------------------------------------------------


Reading SHARK input file HfCO6+.SHARKINP.tmp ... ok
----------------------
SHARK INTEGRAL PACKAGE
----------------------

Number of atoms                             ...     13
Number of basis functions                   ...    505
Number of shells                            ...    177
Maximum angular momentum                    ...      3
Integral batch strategy                     ... SHARK/LIBINT Hybrid
RI-J (if used) integral strategy            ... SPLIT-RIJ (Revised 2003 algorithm where possible)
Printlevel                                  ...      1
Contraction scheme used                     ... SEGMENTED contraction
Coulomb Range Separation                    ... NOT USED
Exchange Range Separation                   ... NOT USED
Finite Nucleus Model                        ... NOT USED
Auxiliary Coulomb fitting basis             ... AVAILABLE
   # of basis functions in Aux-J            ...    677
   # of shells in Aux-J                     ...    203
   Maximum angular momentum in Aux-J        ...      4
Auxiliary J/K fitting basis                 ... NOT available
Auxiliary Correlation fitting basis         ... NOT available
Auxiliary 'external' fitting basis          ... NOT available
Integral threshold                          ...     2.500000e-11
Primitive cut-off                           ...     2.500000e-12
Primitive pair pre-selection threshold      ...     2.500000e-12

Calculating pre-screening integrals         ... done (  0.0 sec) Dimension = 177
Organizing shell pair data                  ... done (  0.1 sec)
Shell pair information
Total number of shell pairs                 ...     15753
Shell pairs after pre-screening             ...     13200
Total number of primitive shell pairs       ...     43350
Primitive shell pairs kept                  ...     26309
          la=0 lb=0:   2385 shell pairs
          la=1 lb=0:   3156 shell pairs
          la=1 lb=1:   1041 shell pairs
          la=2 lb=0:   2532 shell pairs
          la=2 lb=1:   1659 shell pairs
          la=2 lb=2:    687 shell pairs
          la=3 lb=0:    756 shell pairs
          la=3 lb=1:    533 shell pairs
          la=3 lb=2:    381 shell pairs
          la=3 lb=3:     70 shell pairs

Calculating one electron integrals          ... done (  0.0 sec)
Calculating ECP integrals                   ... done (  1.1 sec)
Calculating RI/J V-Matrix + Cholesky decomp.... done (  0.1 sec)
Calculating Nuclear repulsion               ... done (  0.0 sec) ENN=    679.356281637222 Eh

SHARK setup successfully completed in   1.6 seconds

Maximum memory used throughout the entire GTOINT-calculation: 25.2 MB


           ************************************************************
           *        Program running with 8 parallel MPI-processes     *
           *              working on a common directory               *
           ************************************************************
-------------------------------------------------------------------------------
                                 ORCA SCF
-------------------------------------------------------------------------------

------------
SCF SETTINGS
------------
Hamiltonian:
 Density Functional     Method          .... DFT(GTOs)
 Exchange Functional    Exchange        .... B88
   X-Alpha parameter    XAlpha          ....  0.666667
   Becke's b parameter  XBeta           ....  0.004200
 Correlation Functional Correlation     .... LYP
 LDA part of GGA corr.  LDAOpt          .... VWN-5
 Gradients option       PostSCFGGA      .... off
 Hybrid DFT is turned on
   Fraction HF Exchange ScalHFX         ....  0.200000
   Scaling of DF-GGA-X  ScalDFX         ....  0.720000
   Scaling of DF-GGA-C  ScalDFC         ....  0.810000
   Scaling of DF-LDA-C  ScalLDAC        ....  1.000000
   Perturbative correction              ....  0.000000
   Density functional embedding theory  .... OFF
   NL short-range parameter             ....  4.800000
 RI-approximation to the Coulomb term is turned on
   Number of AuxJ basis functions       .... 677
   RIJ-COSX (HFX calculated with COS-X)).... on


General Settings:
 Integral files         IntName         .... HfCO6+
 Hartree-Fock type      HFTyp           .... UHF
 Total Charge           Charge          ....    1
 Multiplicity           Mult            ....    4
 Number of Electrons    NEL             ....   95
 Basis Dimension        Dim             ....  505
 Nuclear Repulsion      ENuc            ....    679.3562816372 Eh

Convergence Acceleration:
 DIIS                   CNVDIIS         .... on
   Start iteration      DIISMaxIt       ....    12
   Startup error        DIISStart       ....  0.200000
   # of expansion vecs  DIISMaxEq       ....     5
   Bias factor          DIISBfac        ....   1.050
   Max. coefficient     DIISMaxC        ....  10.000
 Trust-Rad. Augm. Hess. CNVTRAH         .... auto
   Auto Start mean grad. ratio tolernc. ....  1.125000
   Auto Start start iteration           ....    20
   Auto Start num. interpolation iter.  ....    10
   Max. Number of Micro iterations      ....    16
   Max. Number of Macro iterations      .... Maxiter - #DIIS iter
   Number of Davidson start vectors     ....     2
   Converg. threshold I  (grad. norm)   ....   1.000e-05
   Converg. threshold II (energy diff.) ....   1.000e-08
   Grad. Scal. Fac. for Micro threshold ....   0.100
   Minimum threshold for Micro iter.    ....   0.010
   NR start threshold (gradient norm)   ....   0.001
   Initial trust radius                 ....   0.400
   Minimum AH scaling param. (alpha)    ....   1.000
   Maximum AH scaling param. (alpha)    .... 1000.000
   Orbital update algorithm             .... Taylor
   White noise on init. David. guess    .... on
   Maximum white noise                  ....   0.010
   Quad. conv. algorithm                .... NR
 SOSCF                  CNVSOSCF        .... off
 Level Shifting         CNVShift        .... on
   Level shift para.    LevelShift      ....    0.2500
   Turn off err/grad.   ShiftErr        ....    0.0010
 Zerner damping         CNVZerner       .... off
 Static damping         CNVDamp         .... on
   Fraction old density DampFac         ....    0.7000
   Max. Damping (<1)    DampMax         ....    0.9800
   Min. Damping (>=0)   DampMin         ....    0.0000
   Turn off err/grad.   DampErr         ....    0.1000
 Fernandez-Rico         CNVRico         .... off

SCF Procedure:
 Maximum # iterations   MaxIter         ....   300
 SCF integral mode      SCFMode         .... Direct
   Integral package                     .... SHARK and LIBINT hybrid scheme
 Reset frequency        DirectResetFreq ....    20
 Integral Threshold     Thresh          ....  2.500e-11 Eh
 Primitive CutOff       TCut            ....  2.500e-12 Eh

Convergence Tolerance:
 Convergence Check Mode ConvCheckMode   .... Total+1el-Energy
 Convergence forced     ConvForced      .... 0
 Energy Change          TolE            ....  1.000e-08 Eh
 1-El. energy change                    ....  1.000e-05 Eh
 DIIS Error             TolErr          ....  5.000e-07


Diagonalization of the overlap matrix:
Smallest eigenvalue                        ... 8.576e-06
Time for diagonalization                   ...    0.080 sec
Threshold for overlap eigenvalues          ... 1.000e-08
Number of eigenvalues below threshold      ... 0
Time for construction of square roots      ...    0.125 sec
Total time needed                          ...    0.206 sec

Time for model grid setup =    0.164 sec

------------------------------
INITIAL GUESS: MODEL POTENTIAL
------------------------------
Loading Hartree-Fock densities                     ... done
  calling C:\orca_5_0_4\orca HfCO6+_atom72.inp > HfCO6+_atom72.out in order to generate an atomic fitting density for atom 0 (Hf with ECP) on-the-fly... 
    atom 0 (Hf), assumed electronic state with S=3: 1s2 2s2 2p6 3s2 3p6 4s2 3d10 4p6 5s2 4d10 5p6 6s2 4f14 5d2           ... done
Calculating cut-offs                               ... done
Initializing the effective Hamiltonian             ... done
Setting up the integral package (SHARK)            ... done
Starting the Coulomb interaction                   ... done (   0.1 sec)
Reading the grid                                   ... done
Mapping shells                                     ... done
Starting the XC term evaluation                    ... done (   0.2 sec)
  promolecular density results
     # of electrons  =    156.001127423
     EX              =   -390.362616300
     EC              =     -6.850121835
     EX+EC           =   -397.212738135
Transforming the Hamiltonian                       ... done (   0.1 sec)
Diagonalizing the Hamiltonian                      ... done (   0.1 sec)
Back transforming the eigenvectors                 ... done (   0.0 sec)
Now organizing SCF variables                       ... done
                      ------------------
                      INITIAL GUESS DONE (   4.5 sec)
                      ------------------
-------------------
DFT GRID GENERATION
-------------------

General Integration Accuracy     IntAcc      ... 4.388
Radial Grid Type                 RadialGrid  ... OptM3 with GC (2021)
Angular Grid (max. ang.)         AngularGrid ... 4 (Lebedev-302)
Angular grid pruning method      GridPruning ... 4 (adaptive)
Weight generation scheme         WeightScheme... Becke
Basis function cutoff            BFCut       ... 1.0000e-11
Integration weight cutoff        WCut        ... 1.0000e-14
Angular grids for H and He will be reduced by one unit
Partially contracted basis set               ... off
Rotationally invariant grid construction     ... off

Total number of grid points                  ...    87864
Total number of batches                      ...     1380
Average number of points per batch           ...       63
Average number of grid points per atom       ...     6759
Time for grid setup =    0.633 sec

--------------------
COSX GRID GENERATION
--------------------

GRIDX 1
-------
General Integration Accuracy     IntAcc      ... 3.816
Radial Grid Type                 RadialGrid  ... OptM3 with GC (2021)
Angular Grid (max. ang.)         AngularGrid ... 1 (Lebedev-50)
Angular grid pruning method      GridPruning ... 4 (adaptive)
Weight generation scheme         WeightScheme... Becke
Basis function cutoff            BFCut       ... 1.0000e-11
Integration weight cutoff        WCut        ... 1.0000e-14
Angular grids for H and He will be reduced by one unit
Partially contracted basis set               ... on
Rotationally invariant grid construction     ... off

Total number of grid points                  ...    10834
Total number of batches                      ...      174
Average number of points per batch           ...       62
Average number of grid points per atom       ...      833
UseSFitting                                  ... on

GRIDX 2
-------
General Integration Accuracy     IntAcc      ... 4.020
Radial Grid Type                 RadialGrid  ... OptM3 with GC (2021)
Angular Grid (max. ang.)         AngularGrid ... 2 (Lebedev-110)
Angular grid pruning method      GridPruning ... 4 (adaptive)
Weight generation scheme         WeightScheme... Becke
Basis function cutoff            BFCut       ... 1.0000e-11
Integration weight cutoff        WCut        ... 1.0000e-14
Angular grids for H and He will be reduced by one unit
Partially contracted basis set               ... on
Rotationally invariant grid construction     ... off

Total number of grid points                  ...    30045
Total number of batches                      ...      479
Average number of points per batch           ...       62
Average number of grid points per atom       ...     2311
UseSFitting                                  ... on

GRIDX 3
-------
General Integration Accuracy     IntAcc      ... 4.338
Radial Grid Type                 RadialGrid  ... OptM3 with GC (2021)
Angular Grid (max. ang.)         AngularGrid ... 3 (Lebedev-194)
Angular grid pruning method      GridPruning ... 4 (adaptive)
Weight generation scheme         WeightScheme... Becke
Basis function cutoff            BFCut       ... 1.0000e-11
Integration weight cutoff        WCut        ... 1.0000e-14
Angular grids for H and He will be reduced by one unit
Partially contracted basis set               ... on
Rotationally invariant grid construction     ... off

Total number of grid points                  ...    63440
Total number of batches                      ...     1000
Average number of points per batch           ...       63
Average number of grid points per atom       ...     4880
UseSFitting                                  ... on

Time for X-Grid setup             =    1.466 sec

--------------
SCF ITERATIONS
--------------
ITER       Energy         Delta-E        Max-DP      RMS-DP      [F,P]     Damp
               ***  Starting incremental Fock matrix formation  ***
  0   -727.4208325307   0.000000000000 0.15098547  0.00077914  0.1963884 0.7000
  1   -727.5632418722  -0.142409341569 0.11125264  0.00053894  0.1365341 0.7000
                               ***Turning on DIIS***
  2   -727.6027044658  -0.039462593504 0.25458633  0.00120028  0.0937940 0.0000
  3   -727.7170216661  -0.114317200386 0.01819405  0.00014091  0.0104295 0.0000
  4   -727.7198135427  -0.002791876583 0.00211081  0.00003760  0.0058333 0.0000
  5   -727.7205134328  -0.000699890044 0.00617562  0.00002408  0.0021823 0.0000
  6   -727.7206578380  -0.000144405241 0.00159904  0.00001150  0.0006255 0.0000
               *** Restarting incremental Fock matrix formation ***
                                   *** Resetting DIIS ***
  7   -727.7207210805  -0.000063242470 0.00307336  0.00002726  0.0005255 0.0000
  8   -727.7207140251   0.000007055339 0.00155019  0.00000617  0.0009375 0.0000
  9   -727.7207295855  -0.000015560381 0.00016442  0.00000142  0.0002496 0.0000
 10   -727.7207306214  -0.000001035876 0.00039143  0.00000192  0.0001484 0.0000
 11   -727.7207312726  -0.000000651201 0.00040913  0.00000206  0.0000340 0.0000
 12   -727.7207313472  -0.000000074588 0.00014803  0.00000115  0.0000115 0.0000
 13   -727.7207313743  -0.000000027149 0.00031614  0.00000155  0.0000029 0.0000
 14   -727.7207313704   0.000000003931 0.00006836  0.00000047  0.0000038 0.0000
                 **** Energy Check signals convergence ****

               *****************************************************
               *                     SUCCESS                       *
               *           SCF CONVERGED AFTER  15 CYCLES          *
               *****************************************************

Old exchange energy                            =    -17.031114348 Eh
New exchange energy                            =    -17.031090243 Eh
Exchange energy change after final integration =      0.000024106 Eh
Total energy after final integration           =   -727.720707256 Eh
Final COS-X integration done in                =    12.685 sec

----------------
TOTAL SCF ENERGY
----------------

Total Energy       :         -727.72070726 Eh          -19802.28717 eV

Components:
Nuclear Repulsion  :          679.35628164 Eh           18486.22424 eV
Electronic Energy  :        -1407.07698889 Eh          -38288.51142 eV
One Electron Energy:        -2341.38006389 Eh          -63712.19060 eV
Two Electron Energy:          934.30307500 Eh           25423.67919 eV
Max COSX asymmetry :            0.00000025 Eh               0.00001 eV

Virial components:
Potential Energy   :        -1421.67749733 Eh          -38685.81145 eV
Kinetic Energy     :          693.95679008 Eh           18883.52428 eV
Virial Ratio       :            2.04865421


DFT components:
N(Alpha)           :       48.999997193701 electrons
N(Beta)            :       45.999987042255 electrons
N(Total)           :       94.999984235956 electrons
E(X)               :      -68.082921025387 Eh       
E(C)               :       -3.878358132533 Eh       
E(XC)              :      -71.961279157921 Eh       
DFET-embed. en.    :        0.000000000000 Eh       

---------------
SCF CONVERGENCE
---------------

  Last Energy change         ...    8.3919e-09  Tolerance :   1.0000e-08
  Last MAX-Density change    ...    0.0000e+00  Tolerance :   1.0000e-07
  Last RMS-Density change    ...    0.0000e+00  Tolerance :   5.0000e-09
  Last DIIS Error            ...    1.3747e-06  Tolerance :   5.0000e-07

             **** THE GBW FILE WAS UPDATED (HfCO6+.gbw) ****
             **** DENSITY HfCO6+.scfp WAS UPDATED ****
             **** ENERGY FILE WAS UPDATED (HfCO6+.en.tmp) ****
----------------------
UHF SPIN CONTAMINATION
----------------------

Warning: in a DFT calculation there is little theoretical justification to 
         calculate <S**2> as in Hartree-Fock theory. We will do it anyways
         but you should keep in mind that the values have only limited relevance

Expectation value of <S**2>     :     3.755375
Ideal value S*(S+1) for S=1.5   :     3.750000
Deviation                       :     0.005375

             **** THE GBW FILE WAS UPDATED (HfCO6+.gbw) ****
             **** DENSITY HfCO6+.scfp WAS UPDATED ****
----------------
ORBITAL ENERGIES
----------------
                 SPIN UP ORBITALS
  NO   OCC          E(Eh)            E(eV) 
   0   1.0000     -19.400136      -527.9045 
   1   1.0000     -19.400133      -527.9045 
   2   1.0000     -19.400129      -527.9043 
   3   1.0000     -19.400126      -527.9043 
   4   1.0000     -19.400123      -527.9042 
   5   1.0000     -19.400119      -527.9041 
   6   1.0000     -10.464136      -284.7436 
   7   1.0000     -10.464135      -284.7436 
   8   1.0000     -10.464132      -284.7435 
   9   1.0000     -10.464131      -284.7435 
  10   1.0000     -10.464130      -284.7434 
  11   1.0000     -10.464126      -284.7433 
  12   1.0000      -2.632503       -71.6340 
  13   1.0000      -1.483505       -40.3682 
  14   1.0000      -1.483500       -40.3681 
  15   1.0000      -1.483497       -40.3680 
  16   1.0000      -1.332310       -36.2540 
  17   1.0000      -1.332011       -36.2459 
  18   1.0000      -1.331998       -36.2455 
  19   1.0000      -1.331970       -36.2447 
  20   1.0000      -1.331966       -36.2446 
  21   1.0000      -1.331954       -36.2443 
  22   1.0000      -0.762707       -20.7543 
  23   1.0000      -0.744032       -20.2461 
  24   1.0000      -0.744031       -20.2461 
  25   1.0000      -0.741311       -20.1721 
  26   1.0000      -0.741294       -20.1716 
  27   1.0000      -0.741278       -20.1712 
  28   1.0000      -0.667065       -18.1518 
  29   1.0000      -0.653614       -17.7858 
  30   1.0000      -0.653605       -17.7855 
  31   1.0000      -0.653597       -17.7853 
  32   1.0000      -0.649740       -17.6803 
  33   1.0000      -0.649724       -17.6799 
  34   1.0000      -0.649704       -17.6793 
  35   1.0000      -0.646436       -17.5904 
  36   1.0000      -0.646425       -17.5901 
  37   1.0000      -0.646410       -17.5897 
  38   1.0000      -0.643569       -17.5124 
  39   1.0000      -0.643569       -17.5124 
  40   1.0000      -0.643568       -17.5124 
  41   1.0000      -0.626413       -17.0456 
  42   1.0000      -0.626411       -17.0455 
  43   1.0000      -0.596141       -16.2218 
  44   1.0000      -0.596076       -16.2200 
  45   1.0000      -0.596005       -16.2181 
  46   1.0000      -0.376487       -10.2447 
  47   1.0000      -0.376434       -10.2433 
  48   1.0000      -0.376416       -10.2428 
  49   0.0000      -0.245025        -6.6675 
  50   0.0000      -0.244998        -6.6667 
  51   0.0000      -0.244962        -6.6657 
  52   0.0000      -0.220381        -5.9969 
  53   0.0000      -0.220303        -5.9947 
  54   0.0000      -0.220222        -5.9925 
  55   0.0000      -0.184246        -5.0136 
  56   0.0000      -0.184243        -5.0135 
  57   0.0000      -0.184242        -5.0135 
  58   0.0000      -0.128973        -3.5095 
  59   0.0000      -0.119580        -3.2539 
  60   0.0000      -0.119561        -3.2534 
  61   0.0000      -0.119539        -3.2528 
  62   0.0000      -0.097410        -2.6507 
  63   0.0000      -0.097391        -2.6501 
  64   0.0000      -0.097369        -2.6495 
  65   0.0000      -0.097223        -2.6456 
  66   0.0000      -0.097217        -2.6454 
  67   0.0000      -0.060931        -1.6580 
  68   0.0000      -0.060914        -1.6575 
  69   0.0000      -0.060908        -1.6574 
  70   0.0000      -0.044510        -1.2112 
  71   0.0000      -0.044509        -1.2111 
  72   0.0000      -0.028912        -0.7867 
  73   0.0000      -0.028047        -0.7632 
  74   0.0000      -0.028041        -0.7630 
  75   0.0000      -0.028035        -0.7629 
  76   0.0000      -0.023278        -0.6334 
  77   0.0000      -0.022750        -0.6191 
  78   0.0000      -0.022724        -0.6184 
  79   0.0000      -0.022690        -0.6174 
  80   0.0000       0.008582         0.2335 
  81   0.0000       0.008592         0.2338 
  82   0.0000       0.009806         0.2668 
  83   0.0000       0.018762         0.5106 
  84   0.0000       0.018833         0.5125 
  85   0.0000       0.018900         0.5143 
  86   0.0000       0.020274         0.5517 
  87   0.0000       0.020278         0.5518 
  88   0.0000       0.020281         0.5519 
  89   0.0000       0.063950         1.7402 
  90   0.0000       0.063977         1.7409 
  91   0.0000       0.064016         1.7420 
  92   0.0000       0.068383         1.8608 
  93   0.0000       0.068401         1.8613 
  94   0.0000       0.068423         1.8619 
  95   0.0000       0.086280         2.3478 
  96   0.0000       0.098613         2.6834 
  97   0.0000       0.098626         2.6837 
  98   0.0000       0.098650         2.6844 
  99   0.0000       0.102752         2.7960 
 100   0.0000       0.102753         2.7960 
 101   0.0000       0.104933         2.8554 
 102   0.0000       0.105114         2.8603 
 103   0.0000       0.105316         2.8658 
 104   0.0000       0.126059         3.4302 
 105   0.0000       0.126244         3.4353 
 106   0.0000       0.126383         3.4391 
 107   0.0000       0.135789         3.6950 
 108   0.0000       0.141809         3.8588 
 109   0.0000       0.141826         3.8593 
 110   0.0000       0.154570         4.2061 
 111   0.0000       0.154594         4.2067 
 112   0.0000       0.165290         4.4978 
 113   0.0000       0.165428         4.5015 
 114   0.0000       0.165591         4.5059 
 115   0.0000       0.187567         5.1040 
 116   0.0000       0.187620         5.1054 
 117   0.0000       0.187664         5.1066 
 118   0.0000       0.204886         5.5752 
 119   0.0000       0.205047         5.5796 
 120   0.0000       0.205203         5.5838 
 121   0.0000       0.208985         5.6868 
 122   0.0000       0.209077         5.6893 
 123   0.0000       0.209163         5.6916 
 124   0.0000       0.209792         5.7087 
 125   0.0000       0.209825         5.7096 
 126   0.0000       0.215178         5.8553 
 127   0.0000       0.215188         5.8556 
 128   0.0000       0.215192         5.8557 
 129   0.0000       0.219864         5.9828 
 130   0.0000       0.252637         6.8746 
 131   0.0000       0.290532         7.9058 
 132   0.0000       0.290666         7.9094 
 133   0.0000       0.290746         7.9116 
 134   0.0000       0.311869         8.4864 
 135   0.0000       0.311980         8.4894 
 136   0.0000       0.312183         8.4949 
 137   0.0000       0.321271         8.7422 
 138   0.0000       0.331657         9.0248 
 139   0.0000       0.331825         9.0294 
 140   0.0000       0.331967         9.0333 
 141   0.0000       0.344251         9.3676 
 142   0.0000       0.344318         9.3694 
 143   0.0000       0.344324         9.3695 
 144   0.0000       0.363868         9.9014 
 145   0.0000       0.363967         9.9040 
 146   0.0000       0.364084         9.9072 
 147   0.0000       0.364116         9.9081 
 148   0.0000       0.367780        10.0078 
 149   0.0000       0.367923        10.0117 
 150   0.0000       0.368032        10.0146 
 151   0.0000       0.378295        10.2939 
 152   0.0000       0.378337        10.2951 
 153   0.0000       0.378365        10.2958 
 154   0.0000       0.379534        10.3276 
 155   0.0000       0.379629        10.3302 
 156   0.0000       0.404344        11.0028 
 157   0.0000       0.404347        11.0028 
 158   0.0000       0.406977        11.0744 
 159   0.0000       0.417727        11.3669 
 160   0.0000       0.417735        11.3671 
 161   0.0000       0.417738        11.3672 
 162   0.0000       0.427855        11.6425 
 163   0.0000       0.427903        11.6438 
 164   0.0000       0.427915        11.6441 
 165   0.0000       0.472660        12.8617 
 166   0.0000       0.472700        12.8628 
 167   0.0000       0.499224        13.5846 
 168   0.0000       0.499426        13.5901 
 169   0.0000       0.499623        13.5954 
 170   0.0000       0.501837        13.6557 
 171   0.0000       0.501978        13.6595 
 172   0.0000       0.502001        13.6601 
 173   0.0000       0.503857        13.7106 
 174   0.0000       0.503916        13.7123 
 175   0.0000       0.522435        14.2162 
 176   0.0000       0.522463        14.2170 
 177   0.0000       0.522471        14.2172 
 178   0.0000       0.538662        14.6577 
 179   0.0000       0.541438        14.7333 
 180   0.0000       0.541452        14.7337 
 181   0.0000       0.550185        14.9713 
 182   0.0000       0.550593        14.9824 
 183   0.0000       0.551008        14.9937 
 184   0.0000       0.558026        15.1847 
 185   0.0000       0.570008        15.5107 
 186   0.0000       0.570122        15.5138 
 187   0.0000       0.570167        15.5150 
 188   0.0000       0.635189        17.2844 
 189   0.0000       0.635224        17.2853 
 190   0.0000       0.635270        17.2866 
 191   0.0000       0.638810        17.3829 
 192   0.0000       0.638955        17.3869 
 193   0.0000       0.662236        18.0203 
 194   0.0000       0.662445        18.0260 
 195   0.0000       0.662647        18.0315 
 196   0.0000       0.666578        18.1385 
 197   0.0000       0.666651        18.1405 
 198   0.0000       0.674471        18.3533 
 199   0.0000       0.674530        18.3549 
 200   0.0000       0.674639        18.3579 
 201   0.0000       0.675973        18.3942 
 202   0.0000       0.675992        18.3947 
 203   0.0000       0.676043        18.3961 
 204   0.0000       0.689096        18.7512 
 205   0.0000       0.708065        19.2674 
 206   0.0000       0.735610        20.0170 
 207   0.0000       0.735770        20.0213 
 208   0.0000       0.735937        20.0259 
 209   0.0000       0.757964        20.6252 
 210   0.0000       0.758082        20.6285 
 211   0.0000       0.758149        20.6303 
 212   0.0000       0.765026        20.8174 
 213   0.0000       0.771937        21.0055 
 214   0.0000       0.772106        21.0101 
 215   0.0000       0.772384        21.0176 
 216   0.0000       0.794735        21.6258 
 217   0.0000       0.794764        21.6266 
 218   0.0000       0.794773        21.6269 
 219   0.0000       0.812316        22.1043 
 220   0.0000       0.812543        22.1104 
 221   0.0000       0.812750        22.1161 
 222   0.0000       0.817272        22.2391 
 223   0.0000       0.824995        22.4493 
 224   0.0000       0.825191        22.4546 
 225   0.0000       0.827733        22.5238 
 226   0.0000       0.827786        22.5252 
 227   0.0000       0.827874        22.5276 
 228   0.0000       0.860644        23.4193 
 229   0.0000       0.861115        23.4321 
 230   0.0000       0.861528        23.4434 
 231   0.0000       0.884606        24.0713 
 232   0.0000       0.884617        24.0717 
 233   0.0000       0.884633        24.0721 
 234   0.0000       0.907561        24.6960 
 235   0.0000       0.908246        24.7146 
 236   0.0000       0.908883        24.7320 
 237   0.0000       0.972791        26.4710 
 238   0.0000       0.972973        26.4759 
 239   0.0000       0.973110        26.4797 
 240   0.0000       1.113115        30.2894 
 241   0.0000       1.113314        30.2948 
 242   0.0000       1.113625        30.3033 
 243   0.0000       1.118429        30.4340 
 244   0.0000       1.148629        31.2558 
 245   0.0000       1.148861        31.2621 
 246   0.0000       1.178776        32.0761 
 247   0.0000       1.178880        32.0790 
 248   0.0000       1.178980        32.0817 
 249   0.0000       1.179456        32.0946 
 250   0.0000       1.179585        32.0981 
 251   0.0000       1.179734        32.1022 
 252   0.0000       1.210266        32.9330 
 253   0.0000       1.210619        32.9426 
 254   0.0000       1.256843        34.2004 
 255   0.0000       1.257046        34.2060 
 256   0.0000       1.257252        34.2116 
 257   0.0000       1.288445        35.0604 
 258   0.0000       1.288446        35.0604 
 259   0.0000       1.528623        41.5960 
 260   0.0000       1.528658        41.5969 
 261   0.0000       1.528691        41.5978 
 262   0.0000       1.530149        41.6375 
 263   0.0000       1.530465        41.6461 
 264   0.0000       1.530793        41.6550 
 265   0.0000       1.561719        42.4965 
 266   0.0000       1.561845        42.5000 
 267   0.0000       1.562023        42.5048 
 268   0.0000       1.585754        43.1506 
 269   0.0000       1.590858        43.2894 
 270   0.0000       1.591231        43.2996 
 271   0.0000       1.591546        43.3082 
 272   0.0000       1.594618        43.3918 
 273   0.0000       1.605373        43.6844 
 274   0.0000       1.605378        43.6846 
 275   0.0000       1.621485        44.1229 
 276   0.0000       1.621649        44.1273 
 277   0.0000       1.660447        45.1831 
 278   0.0000       1.660967        45.1972 
 279   0.0000       1.661005        45.1983 
 280   0.0000       1.661163        45.2026 
 281   0.0000       1.661432        45.2099 
 282   0.0000       1.661523        45.2123 
 283   0.0000       1.680478        45.7281 
 284   0.0000       1.697385        46.1882 
 285   0.0000       1.697786        46.1991 
 286   0.0000       1.698174        46.2097 
 287   0.0000       1.698287        46.2127 
 288   0.0000       1.752281        47.6820 
 289   0.0000       1.752379        47.6846 
 290   0.0000       1.778578        48.3976 
 291   0.0000       1.779107        48.4120 
 292   0.0000       1.779744        48.4293 
 293   0.0000       1.844840        50.2007 
 294   0.0000       1.845118        50.2082 
 295   0.0000       1.917493        52.1776 
 296   0.0000       1.920157        52.2501 
 297   0.0000       1.920167        52.2504 
 298   0.0000       1.920196        52.2512 
 299   0.0000       1.993630        54.2494 
 300   0.0000       1.993631        54.2495 
 301   0.0000       1.993635        54.2496 
 302   0.0000       2.022996        55.0485 
 303   0.0000       2.023193        55.0539 
 304   0.0000       2.023432        55.0604 
 305   0.0000       2.036366        55.4123 
 306   0.0000       2.036507        55.4162 
 307   0.0000       2.036642        55.4198 
 308   0.0000       2.053965        55.8912 
 309   0.0000       2.054013        55.8925 
 310   0.0000       2.185780        59.4781 
 311   0.0000       2.240192        60.9587 
 312   0.0000       2.240359        60.9633 
 313   0.0000       2.240536        60.9681 
 314   0.0000       2.263259        61.5864 
 315   0.0000       2.263340        61.5886 
 316   0.0000       2.271064        61.7988 
 317   0.0000       2.314517        62.9812 
 318   0.0000       2.314608        62.9837 
 319   0.0000       2.314668        62.9853 
 320   0.0000       2.460405        66.9510 
 321   0.0000       2.460430        66.9517 
 322   0.0000       2.460448        66.9522 
 323   0.0000       2.493839        67.8608 
 324   0.0000       2.494035        67.8661 
 325   0.0000       2.494116        67.8683 
 326   0.0000       2.497063        67.9485 
 327   0.0000       2.497193        67.9521 
 328   0.0000       2.497268        67.9541 
 329   0.0000       2.548482        69.3477 
 330   0.0000       2.548536        69.3492 
 331   0.0000       2.548650        69.3523 
 332   0.0000       2.625377        71.4401 
 333   0.0000       2.625428        71.4415 
 334   0.0000       2.625567        71.4453 
 335   0.0000       2.637112        71.7595 
 336   0.0000       2.637145        71.7604 
 337   0.0000       2.668570        72.6155 
 338   0.0000       2.709622        73.7326 
 339   0.0000       2.709708        73.7349 
 340   0.0000       2.709708        73.7349 
 341   0.0000       2.729536        74.2745 
 342   0.0000       2.729837        74.2826 
 343   0.0000       2.729840        74.2827 
 344   0.0000       2.729864        74.2834 
 345   0.0000       2.781500        75.6884 
 346   0.0000       2.781697        75.6938 
 347   0.0000       2.782023        75.7027 
 348   0.0000       2.789613        75.9092 
 349   0.0000       2.789926        75.9177 
 350   0.0000       2.790177        75.9246 
 351   0.0000       2.806989        76.3821 
 352   0.0000       2.807201        76.3878 
 353   0.0000       2.807413        76.3936 
 354   0.0000       2.847312        77.4793 
 355   0.0000       2.847344        77.4802 
 356   0.0000       2.876435        78.2718 
 357   0.0000       2.883940        78.4760 
 358   0.0000       2.883969        78.4768 
 359   0.0000       2.900375        78.9232 
 360   0.0000       2.900468        78.9257 
 361   0.0000       2.900527        78.9274 
 362   0.0000       2.936511        79.9065 
 363   0.0000       2.941674        80.0470 
 364   0.0000       2.942039        80.0570 
 365   0.0000       2.942391        80.0665 
 366   0.0000       3.000591        81.6502 
 367   0.0000       3.001125        81.6648 
 368   0.0000       3.001575        81.6770 
 369   0.0000       3.005911        81.7950 
 370   0.0000       3.006053        81.7988 
 371   0.0000       3.006335        81.8065 
 372   0.0000       3.050875        83.0185 
 373   0.0000       3.051350        83.0315 
 374   0.0000       3.051912        83.0468 
 375   0.0000       3.071015        83.5666 
 376   0.0000       3.071023        83.5668 
 377   0.0000       3.071076        83.5682 
 378   0.0000       3.143691        85.5442 
 379   0.0000       3.143751        85.5458 
 380   0.0000       3.143898        85.5498 
 381   0.0000       3.225942        87.7823 
 382   0.0000       3.226001        87.7840 
 383   0.0000       3.239372        88.1478 
 384   0.0000       3.239445        88.1498 
 385   0.0000       3.241575        88.2077 
 386   0.0000       3.293743        89.6273 
 387   0.0000       3.293799        89.6288 
 388   0.0000       3.293896        89.6315 
 389   0.0000       3.397492        92.4505 
 390   0.0000       3.456047        94.0438 
 391   0.0000       3.456134        94.0462 
 392   0.0000       3.489514        94.9545 
 393   0.0000       3.489542        94.9553 
 394   0.0000       3.489581        94.9563 
 395   0.0000       3.538876        96.2977 
 396   0.0000       3.539082        96.3033 
 397   0.0000       3.539220        96.3071 
 398   0.0000       3.542717        96.4022 
 399   0.0000       3.543149        96.4140 
 400   0.0000       3.543604        96.4264 
 401   0.0000       3.556255        96.7706 
 402   0.0000       3.556417        96.7750 
 403   0.0000       3.556627        96.7807 
 404   0.0000       3.921407       106.7069 
 405   0.0000       4.018607       109.3519 
 406   0.0000       4.018611       109.3520 
 407   0.0000       4.144314       112.7725 
 408   0.0000       4.144538       112.7786 
 409   0.0000       4.144818       112.7862 
 410   0.0000       4.241570       115.4190 
 411   0.0000       4.241585       115.4194 
 412   0.0000       4.242418       115.4421 
 413   0.0000       4.324268       117.6693 
 414   0.0000       4.324404       117.6730 
 415   0.0000       4.324584       117.6779 
 416   0.0000       4.910132       133.6115 
 417   0.0000       4.910135       133.6116 
 418   0.0000       4.910154       133.6121 
 419   0.0000       4.910261       133.6150 
 420   0.0000       4.910274       133.6153 
 421   0.0000       4.910276       133.6154 
 422   0.0000       4.910596       133.6241 
 423   0.0000       4.910609       133.6245 
 424   0.0000       4.910612       133.6245 
 425   0.0000       4.911242       133.6417 
 426   0.0000       4.911244       133.6417 
 427   0.0000       4.911264       133.6423 
 428   0.0000       5.331242       145.0705 
 429   0.0000       5.331245       145.0706 
 430   0.0000       5.333804       145.1402 
 431   0.0000       5.335628       145.1898 
 432   0.0000       5.335640       145.1902 
 433   0.0000       5.335663       145.1908 
 434   0.0000       5.337660       145.2451 
 435   0.0000       5.337678       145.2456 
 436   0.0000       5.337724       145.2469 
 437   0.0000       5.342382       145.3736 
 438   0.0000       5.358171       145.8032 
 439   0.0000       5.358183       145.8036 
 440   0.0000       6.037174       164.2798 
 441   0.0000       6.037175       164.2799 
 442   0.0000       6.037178       164.2800 
 443   0.0000       6.097429       165.9195 
 444   0.0000       6.097475       165.9207 
 445   0.0000       6.097507       165.9216 
 446   0.0000       6.102694       166.0627 
 447   0.0000       6.102790       166.0654 
 448   0.0000       6.102874       166.0676 
 449   0.0000       6.113151       166.3473 
 450   0.0000       6.113310       166.3516 
 451   0.0000       6.113462       166.3558 
 452   0.0000       6.205548       168.8615 
 453   0.0000       6.220105       169.2577 
 454   0.0000       6.220112       169.2578 
 455   0.0000       6.220141       169.2586 
 456   0.0000       6.231694       169.5730 
 457   0.0000       6.231701       169.5732 
 458   0.0000       6.234656       169.6536 
 459   0.0000       6.234953       169.6617 
 460   0.0000       6.235210       169.6687 
 461   0.0000       6.249620       170.0608 
 462   0.0000       6.249632       170.0611 
 463   0.0000       6.285657       171.0414 
 464   0.0000       6.411893       174.4765 
 465   0.0000       6.426489       174.8737 
 466   0.0000       6.426503       174.8740 
 467   0.0000       6.460089       175.7879 
 468   0.0000       6.460095       175.7881 
 469   0.0000       6.460139       175.7893 
 470   0.0000       6.613387       179.9594 
 471   0.0000       6.613640       179.9663 
 472   0.0000       6.613893       179.9732 
 473   0.0000       6.615961       180.0295 
 474   0.0000       6.615974       180.0298 
 475   0.0000       6.615984       180.0301 
 476   0.0000       6.659525       181.2149 
 477   0.0000       6.659529       181.2150 
 478   0.0000       6.659542       181.2153 
 479   0.0000       6.678004       181.7177 
 480   0.0000       6.678069       181.7195 
 481   0.0000       6.678128       181.7211 
 482   0.0000       7.000668       190.4979 
 483   0.0000       7.000731       190.4996 
 484   0.0000       7.000816       190.5019 
 485   0.0000       7.020112       191.0270 
 486   0.0000       7.020117       191.0271 
 487   0.0000       7.023695       191.1244 
 488   0.0000      22.569235       614.1401 
 489   0.0000      22.685589       617.3063 
 490   0.0000      22.685592       617.3063 
 491   0.0000      22.746085       618.9524 
 492   0.0000      22.747231       618.9836 
 493   0.0000      22.748281       619.0122 
 494   0.0000      43.838712      1192.9120 
 495   0.0000      43.839384      1192.9303 
 496   0.0000      43.840075      1192.9491 
 497   0.0000      43.921937      1195.1767 
 498   0.0000      44.072044      1199.2613 
 499   0.0000      44.072056      1199.2616 
 500   0.0000      46.418110      1263.1010 
 501   0.0000      46.427539      1263.3576 
 502   0.0000      46.436868      1263.6114 
 503   0.0000      79.640153      2167.1187 
 504   0.0000     741.625579     20180.6580 

                 SPIN DOWN ORBITALS
  NO   OCC          E(Eh)            E(eV) 
   0   1.0000     -19.396456      -527.8044 
   1   1.0000     -19.396454      -527.8043 
   2   1.0000     -19.396450      -527.8042 
   3   1.0000     -19.396447      -527.8042 
   4   1.0000     -19.396443      -527.8040 
   5   1.0000     -19.396438      -527.8039 
   6   1.0000     -10.463836      -284.7354 
   7   1.0000     -10.463835      -284.7354 
   8   1.0000     -10.463832      -284.7354 
   9   1.0000     -10.463831      -284.7353 
  10   1.0000     -10.463830      -284.7353 
  11   1.0000     -10.463826      -284.7352 
  12   1.0000      -2.611334       -71.0580 
  13   1.0000      -1.452982       -39.5376 
  14   1.0000      -1.452970       -39.5373 
  15   1.0000      -1.452947       -39.5367 
  16   1.0000      -1.326473       -36.0952 
  17   1.0000      -1.326189       -36.0874 
  18   1.0000      -1.326177       -36.0871 
  19   1.0000      -1.326138       -36.0860 
  20   1.0000      -1.326134       -36.0860 
  21   1.0000      -1.326123       -36.0856 
  22   1.0000      -0.751998       -20.4629 
  23   1.0000      -0.737381       -20.0652 
  24   1.0000      -0.737373       -20.0649 
  25   1.0000      -0.734672       -19.9915 
  26   1.0000      -0.734655       -19.9910 
  27   1.0000      -0.734643       -19.9906 
  28   1.0000      -0.656047       -17.8519 
  29   1.0000      -0.642321       -17.4785 
  30   1.0000      -0.642309       -17.4781 
  31   1.0000      -0.642302       -17.4779 
  32   1.0000      -0.639372       -17.3982 
  33   1.0000      -0.639353       -17.3977 
  34   1.0000      -0.639331       -17.3971 
  35   1.0000      -0.636129       -17.3100 
  36   1.0000      -0.636114       -17.3095 
  37   1.0000      -0.636098       -17.3091 
  38   1.0000      -0.633265       -17.2320 
  39   1.0000      -0.633265       -17.2320 
  40   1.0000      -0.633262       -17.2319 
  41   1.0000      -0.618509       -16.8305 
  42   1.0000      -0.618472       -16.8295 
  43   1.0000      -0.587478       -15.9861 
  44   1.0000      -0.587397       -15.9839 
  45   1.0000      -0.587341       -15.9824 
  46   0.0000      -0.304223        -8.2783 
  47   0.0000      -0.304133        -8.2759 
  48   0.0000      -0.304055        -8.2738 
  49   0.0000      -0.225534        -6.1371 
  50   0.0000      -0.225521        -6.1368 
  51   0.0000      -0.225472        -6.1354 
  52   0.0000      -0.202747        -5.5170 
  53   0.0000      -0.202684        -5.5153 
  54   0.0000      -0.202594        -5.5129 
  55   0.0000      -0.171415        -4.6644 
  56   0.0000      -0.171387        -4.6637 
  57   0.0000      -0.171377        -4.6634 
  58   0.0000      -0.127711        -3.4752 
  59   0.0000      -0.097028        -2.6403 
  60   0.0000      -0.097002        -2.6396 
  61   0.0000      -0.096984        -2.6391 
  62   0.0000      -0.089557        -2.4370 
  63   0.0000      -0.089537        -2.4364 
  64   0.0000      -0.085477        -2.3259 
  65   0.0000      -0.085450        -2.3252 
  66   0.0000      -0.085404        -2.3240 
  67   0.0000      -0.060058        -1.6343 
  68   0.0000      -0.060043        -1.6339 
  69   0.0000      -0.060038        -1.6337 
  70   0.0000      -0.038760        -1.0547 
  71   0.0000      -0.038738        -1.0541 
  72   0.0000      -0.027606        -0.7512 
  73   0.0000      -0.027603        -0.7511 
  74   0.0000      -0.027599        -0.7510 
  75   0.0000      -0.022713        -0.6181 
  76   0.0000      -0.022687        -0.6173 
  77   0.0000      -0.022654        -0.6164 
  78   0.0000      -0.022310        -0.6071 
  79   0.0000      -0.020952        -0.5701 
  80   0.0000       0.009745         0.2652 
  81   0.0000       0.009760         0.2656 
  82   0.0000       0.019086         0.5193 
  83   0.0000       0.019166         0.5215 
  84   0.0000       0.019229         0.5233 
  85   0.0000       0.020619         0.5611 
  86   0.0000       0.020624         0.5612 
  87   0.0000       0.020626         0.5613 
  88   0.0000       0.032628         0.8879 
  89   0.0000       0.067137         1.8269 
  90   0.0000       0.067203         1.8287 
  91   0.0000       0.067223         1.8292 
  92   0.0000       0.069363         1.8875 
  93   0.0000       0.069379         1.8879 
  94   0.0000       0.069386         1.8881 
  95   0.0000       0.089365         2.4317 
  96   0.0000       0.099562         2.7092 
  97   0.0000       0.099577         2.7096 
  98   0.0000       0.099593         2.7101 
  99   0.0000       0.103265         2.8100 
 100   0.0000       0.103270         2.8101 
 101   0.0000       0.111442         3.0325 
 102   0.0000       0.111560         3.0357 
 103   0.0000       0.111738         3.0405 
 104   0.0000       0.125930         3.4267 
 105   0.0000       0.126109         3.4316 
 106   0.0000       0.126246         3.4353 
 107   0.0000       0.138492         3.7685 
 108   0.0000       0.143568         3.9067 
 109   0.0000       0.143594         3.9074 
 110   0.0000       0.153680         4.1818 
 111   0.0000       0.153720         4.1829 
 112   0.0000       0.172122         4.6837 
 113   0.0000       0.172257         4.6873 
 114   0.0000       0.172385         4.6908 
 115   0.0000       0.197477         5.3736 
 116   0.0000       0.197494         5.3741 
 117   0.0000       0.197657         5.3785 
 118   0.0000       0.204831         5.5737 
 119   0.0000       0.204990         5.5781 
 120   0.0000       0.205156         5.5826 
 121   0.0000       0.210090         5.7168 
 122   0.0000       0.210125         5.7178 
 123   0.0000       0.210440         5.7264 
 124   0.0000       0.210495         5.7279 
 125   0.0000       0.210555         5.7295 
 126   0.0000       0.214853         5.8464 
 127   0.0000       0.214872         5.8470 
 128   0.0000       0.214876         5.8471 
 129   0.0000       0.218960         5.9582 
 130   0.0000       0.256178         6.9710 
 131   0.0000       0.295907         8.0520 
 132   0.0000       0.296047         8.0559 
 133   0.0000       0.296112         8.0576 
 134   0.0000       0.325422         8.8552 
 135   0.0000       0.325489         8.8570 
 136   0.0000       0.325797         8.8654 
 137   0.0000       0.330127         8.9832 
 138   0.0000       0.334158         9.0929 
 139   0.0000       0.334328         9.0975 
 140   0.0000       0.334469         9.1014 
 141   0.0000       0.352613         9.5951 
 142   0.0000       0.352664         9.5965 
 143   0.0000       0.352752         9.5989 
 144   0.0000       0.365939         9.9577 
 145   0.0000       0.366029         9.9602 
 146   0.0000       0.366177         9.9642 
 147   0.0000       0.369382        10.0514 
 148   0.0000       0.372484        10.1358 
 149   0.0000       0.372662        10.1407 
 150   0.0000       0.372733        10.1426 
 151   0.0000       0.380906        10.3650 
 152   0.0000       0.380947        10.3661 
 153   0.0000       0.380971        10.3667 
 154   0.0000       0.385928        10.5016 
 155   0.0000       0.386103        10.5064 
 156   0.0000       0.406313        11.0563 
 157   0.0000       0.406325        11.0567 
 158   0.0000       0.410489        11.1700 
 159   0.0000       0.418185        11.3794 
 160   0.0000       0.418198        11.3797 
 161   0.0000       0.418202        11.3798 
 162   0.0000       0.433231        11.7888 
 163   0.0000       0.433293        11.7905 
 164   0.0000       0.433334        11.7916 
 165   0.0000       0.476867        12.9762 
 166   0.0000       0.476991        12.9796 
 167   0.0000       0.503668        13.7055 
 168   0.0000       0.503885        13.7114 
 169   0.0000       0.504072        13.7165 
 170   0.0000       0.504899        13.7390 
 171   0.0000       0.505039        13.7428 
 172   0.0000       0.505075        13.7438 
 173   0.0000       0.505810        13.7638 
 174   0.0000       0.505899        13.7662 
 175   0.0000       0.528576        14.3833 
 176   0.0000       0.528618        14.3844 
 177   0.0000       0.528643        14.3851 
 178   0.0000       0.542562        14.7639 
 179   0.0000       0.542584        14.7645 
 180   0.0000       0.550842        14.9892 
 181   0.0000       0.551246        15.0002 
 182   0.0000       0.551669        15.0117 
 183   0.0000       0.562299        15.3009 
 184   0.0000       0.566777        15.4228 
 185   0.0000       0.572782        15.5862 
 186   0.0000       0.573025        15.5928 
 187   0.0000       0.573059        15.5937 
 188   0.0000       0.638150        17.3650 
 189   0.0000       0.638172        17.3655 
 190   0.0000       0.638195        17.3662 
 191   0.0000       0.639089        17.3905 
 192   0.0000       0.639120        17.3913 
 193   0.0000       0.669175        18.2092 
 194   0.0000       0.669325        18.2133 
 195   0.0000       0.678683        18.4679 
 196   0.0000       0.678760        18.4700 
 197   0.0000       0.678768        18.4702 
 198   0.0000       0.678851        18.4725 
 199   0.0000       0.678973        18.4758 
 200   0.0000       0.679220        18.4825 
 201   0.0000       0.679549        18.4915 
 202   0.0000       0.679593        18.4927 
 203   0.0000       0.681054        18.5324 
 204   0.0000       0.692799        18.8520 
 205   0.0000       0.708805        19.2876 
 206   0.0000       0.736251        20.0344 
 207   0.0000       0.736445        20.0397 
 208   0.0000       0.736595        20.0438 
 209   0.0000       0.764697        20.8085 
 210   0.0000       0.764822        20.8119 
 211   0.0000       0.764905        20.8141 
 212   0.0000       0.764954        20.8155 
 213   0.0000       0.776094        21.1186 
 214   0.0000       0.776270        21.1234 
 215   0.0000       0.776535        21.1306 
 216   0.0000       0.798683        21.7333 
 217   0.0000       0.798771        21.7357 
 218   0.0000       0.798794        21.7363 
 219   0.0000       0.817909        22.2564 
 220   0.0000       0.818157        22.2632 
 221   0.0000       0.818352        22.2685 
 222   0.0000       0.828609        22.5476 
 223   0.0000       0.828937        22.5565 
 224   0.0000       0.831888        22.6368 
 225   0.0000       0.831935        22.6381 
 226   0.0000       0.832029        22.6407 
 227   0.0000       0.844493        22.9798 
 228   0.0000       0.870594        23.6901 
 229   0.0000       0.871186        23.7062 
 230   0.0000       0.871485        23.7143 
 231   0.0000       0.890731        24.2380 
 232   0.0000       0.890893        24.2424 
 233   0.0000       0.890953        24.2441 
 234   0.0000       0.917971        24.9793 
 235   0.0000       0.918653        24.9978 
 236   0.0000       0.919273        25.0147 
 237   0.0000       0.981540        26.7091 
 238   0.0000       0.981741        26.7145 
 239   0.0000       0.981879        26.7183 
 240   0.0000       1.115754        30.3612 
 241   0.0000       1.115994        30.3677 
 242   0.0000       1.116294        30.3759 
 243   0.0000       1.121267        30.5112 
 244   0.0000       1.151337        31.3295 
 245   0.0000       1.151497        31.3338 
 246   0.0000       1.194700        32.5095 
 247   0.0000       1.194824        32.5128 
 248   0.0000       1.194869        32.5140 
 249   0.0000       1.194969        32.5168 
 250   0.0000       1.194997        32.5175 
 251   0.0000       1.195267        32.5249 
 252   0.0000       1.213097        33.0101 
 253   0.0000       1.213264        33.0146 
 254   0.0000       1.272086        34.6152 
 255   0.0000       1.272446        34.6250 
 256   0.0000       1.272473        34.6258 
 257   0.0000       1.297080        35.2954 
 258   0.0000       1.297157        35.2974 
 259   0.0000       1.531535        41.6752 
 260   0.0000       1.531605        41.6771 
 261   0.0000       1.531645        41.6782 
 262   0.0000       1.536113        41.7998 
 263   0.0000       1.536407        41.8078 
 264   0.0000       1.536741        41.8169 
 265   0.0000       1.567669        42.6584 
 266   0.0000       1.567814        42.6624 
 267   0.0000       1.567974        42.6667 
 268   0.0000       1.591470        43.3061 
 269   0.0000       1.595417        43.4135 
 270   0.0000       1.595789        43.4236 
 271   0.0000       1.596106        43.4323 
 272   0.0000       1.601625        43.5824 
 273   0.0000       1.611656        43.8554 
 274   0.0000       1.611666        43.8557 
 275   0.0000       1.627082        44.2751 
 276   0.0000       1.627137        44.2767 
 277   0.0000       1.667243        45.3680 
 278   0.0000       1.667740        45.3815 
 279   0.0000       1.668319        45.3973 
 280   0.0000       1.668991        45.4156 
 281   0.0000       1.669320        45.4245 
 282   0.0000       1.669442        45.4278 
 283   0.0000       1.686536        45.8930 
 284   0.0000       1.701434        46.2984 
 285   0.0000       1.701797        46.3082 
 286   0.0000       1.702174        46.3185 
 287   0.0000       1.703055        46.3425 
 288   0.0000       1.756385        47.7937 
 289   0.0000       1.756503        47.7969 
 290   0.0000       1.783164        48.5223 
 291   0.0000       1.783646        48.5355 
 292   0.0000       1.784405        48.5561 
 293   0.0000       1.848468        50.2994 
 294   0.0000       1.848671        50.3049 
 295   0.0000       1.924669        52.3729 
 296   0.0000       1.924730        52.3746 
 297   0.0000       1.924768        52.3756 
 298   0.0000       1.928654        52.4813 
 299   0.0000       1.999915        54.4205 
 300   0.0000       1.999926        54.4207 
 301   0.0000       1.999937        54.4210 
 302   0.0000       2.031725        55.2861 
 303   0.0000       2.031954        55.2923 
 304   0.0000       2.032168        55.2981 
 305   0.0000       2.041856        55.5617 
 306   0.0000       2.042014        55.5660 
 307   0.0000       2.042137        55.5694 
 308   0.0000       2.070614        56.3443 
 309   0.0000       2.070969        56.3539 
 310   0.0000       2.195332        59.7380 
 311   0.0000       2.243222        61.0412 
 312   0.0000       2.243366        61.0451 
 313   0.0000       2.243557        61.0503 
 314   0.0000       2.265437        61.6457 
 315   0.0000       2.265491        61.6471 
 316   0.0000       2.285888        62.2022 
 317   0.0000       2.324683        63.2578 
 318   0.0000       2.324764        63.2601 
 319   0.0000       2.324861        63.2627 
 320   0.0000       2.465259        67.0831 
 321   0.0000       2.465288        67.0839 
 322   0.0000       2.465306        67.0844 
 323   0.0000       2.498552        67.9891 
 324   0.0000       2.498742        67.9942 
 325   0.0000       2.498829        67.9966 
 326   0.0000       2.501899        68.0801 
 327   0.0000       2.502034        68.0838 
 328   0.0000       2.502103        68.0857 
 329   0.0000       2.553202        69.4761 
 330   0.0000       2.553254        69.4776 
 331   0.0000       2.553367        69.4807 
 332   0.0000       2.631093        71.5957 
 333   0.0000       2.631147        71.5972 
 334   0.0000       2.631288        71.6010 
 335   0.0000       2.641659        71.8832 
 336   0.0000       2.641693        71.8841 
 337   0.0000       2.673372        72.7462 
 338   0.0000       2.715260        73.8860 
 339   0.0000       2.715329        73.8879 
 340   0.0000       2.715339        73.8881 
 341   0.0000       2.736259        74.4574 
 342   0.0000       2.736999        74.4775 
 343   0.0000       2.737035        74.4785 
 344   0.0000       2.737062        74.4792 
 345   0.0000       2.789605        75.9090 
 346   0.0000       2.789811        75.9146 
 347   0.0000       2.790124        75.9231 
 348   0.0000       2.797158        76.1145 
 349   0.0000       2.797475        76.1232 
 350   0.0000       2.797733        76.1302 
 351   0.0000       2.814828        76.5954 
 352   0.0000       2.815046        76.6013 
 353   0.0000       2.815255        76.6070 
 354   0.0000       2.855601        77.7048 
 355   0.0000       2.855737        77.7086 
 356   0.0000       2.880811        78.3908 
 357   0.0000       2.888931        78.6118 
 358   0.0000       2.888938        78.6120 
 359   0.0000       2.905322        79.0578 
 360   0.0000       2.905449        79.0613 
 361   0.0000       2.905483        79.0622 
 362   0.0000       2.940995        80.0285 
 363   0.0000       2.945689        80.1563 
 364   0.0000       2.946073        80.1667 
 365   0.0000       2.946397        80.1755 
[...]
     20       0.003409  -0.021827   0.224448  -0.002977  -0.032168  -0.027004
     21       0.003559   0.224657   0.021170   0.008928   0.003887  -0.008300
     22       0.001208   0.000189  -0.009821   0.391821   0.124921  -0.291792
     23       0.225626  -0.003470  -0.003562  -0.001237   0.002003  -0.000371
     24       0.003079  -0.007269  -0.012195  -0.088708  -0.397137  -0.294899
     25       0.016587  -0.224127  -0.021135   0.006404   0.013184   0.008900
     26      -0.003413   0.021829  -0.224447   0.002976   0.032170   0.027011
     27       0.007179   0.041939  -0.441907  -0.038118   0.016989  -0.028672
     28       0.445246   0.032580   0.010658  -0.002282   0.003621   0.001089
     29      -0.003319  -0.007241   0.042899  -0.296244   0.276142  -0.281000
     30      -0.007198  -0.041940   0.441902   0.038077  -0.016971   0.028679
     31      -0.445242  -0.032574  -0.010653   0.002215  -0.003557  -0.001256
     32       0.003165   0.007224  -0.042859   0.296263  -0.276165   0.281010
     33      -0.004243  -0.021718   0.223943  -0.022159   0.029589  -0.025525
     34      -0.225196  -0.016423  -0.005415   0.003004  -0.003525   0.001202
     35      -0.005011  -0.001607  -0.018449  -0.301086   0.278181  -0.290717
     36       0.004246   0.021720  -0.223941   0.022154  -0.029576   0.025498
     37       0.225195   0.016420   0.005414  -0.003056   0.003571  -0.001204
     38       0.005026   0.001606   0.018442   0.301100  -0.278202   0.290732
                 24         25         26         27         28         29    
      0       0.000003   0.000007   0.000014   0.000098  -0.000025   0.000252
      1       0.000000  -0.000001   0.000001   0.000184  -0.000202   0.000013
      2       0.000002   0.000014  -0.000007  -0.000271  -0.000339   0.000332
      3      -0.038054   0.002672   0.019040  -0.005197  -0.037352   0.020305
      4       0.069990   0.171755   0.429176   0.413254  -0.194666   0.050086
      5      -0.458857  -0.020201   0.082838  -0.194199  -0.357192   0.198678
      6       0.074572   0.131606   0.443515  -0.029594  -0.172858  -0.434253
      7      -0.001755  -0.002875  -0.013733   0.000984   0.004176   0.013510
      8       0.042785  -0.449323   0.126643   0.207888   0.388417  -0.169960
      9       0.038020  -0.002727  -0.019194  -0.005035  -0.037414   0.020343
     10      -0.069983  -0.171758  -0.429161   0.413257  -0.194582   0.050236
     11       0.458805   0.020281  -0.082848  -0.194225  -0.357201   0.198680
     12      -0.074608  -0.131713  -0.443728  -0.029570  -0.172755  -0.434092
     13       0.001764   0.002917   0.013789   0.001059   0.004232   0.013624
     14      -0.042754   0.449133  -0.126543   0.207972   0.388526  -0.170046
     15      -0.028030  -0.049256  -0.165974   0.012043   0.070008   0.175863
     16       0.001498   0.001714   0.005144   0.000196  -0.002444  -0.005488
     17      -0.016003   0.168082  -0.047411  -0.084364  -0.157305   0.068801
     18       0.016051  -0.001905  -0.008938   0.002056   0.016199  -0.006959
     19      -0.026099  -0.064212  -0.160437  -0.167618   0.078769  -0.020336
     20       0.171421   0.007610  -0.030782   0.078732   0.144462  -0.080486
     21       0.028047   0.049305   0.166071   0.012038   0.069973   0.175811
     22      -0.001507  -0.001744  -0.005202   0.000251  -0.002459  -0.005465
     23       0.015988  -0.167992   0.047364  -0.084391  -0.157339   0.068829
     24      -0.016050   0.001901   0.008937   0.002074   0.016203  -0.006943
     25       0.026097   0.064214   0.160431  -0.167620   0.078740  -0.020388
     26      -0.171389  -0.007647   0.030793   0.078734   0.144467  -0.080490
     27       0.456670   0.034109  -0.087125   0.033323   0.207800   0.405217
     28      -0.063231   0.434084  -0.162891  -0.418991   0.195920  -0.063824
     29      -0.043161  -0.001566   0.007896  -0.005546  -0.019673  -0.036851
     30      -0.456644  -0.034089   0.087215   0.033330   0.207838   0.405213
     31       0.063224  -0.434046   0.162905  -0.419081   0.195799  -0.063759
     32       0.043131   0.001407  -0.007837  -0.005708  -0.019596  -0.036853
     33      -0.170863  -0.012768   0.032630  -0.013619  -0.084269  -0.163806
     34       0.023667  -0.162305   0.060837   0.169925  -0.079281   0.025826
     35       0.014938   0.000342  -0.002208   0.001089   0.006017   0.015973
     36       0.170851   0.012750  -0.032671  -0.013626  -0.084276  -0.163812
     37      -0.023665   0.162289  -0.060843   0.169957  -0.079240   0.025805
     38      -0.014940  -0.000344   0.002213   0.001070   0.006008   0.015950
                 30         31         32         33         34         35    
      0       0.003903   0.015276  -0.057355  -0.000023   0.001003   0.000403
      1      -0.058574  -0.004394  -0.005148  -0.001095  -0.000032   0.000023
      2       0.005530  -0.057184  -0.014783   0.000035  -0.000402   0.001009
      3       0.010280   0.043768   0.008285   0.003739   0.537365   0.159450
      4       0.466590   0.029116   0.054479   0.001870  -0.016107  -0.004846
      5      -0.047050   0.444435   0.159812  -0.000402  -0.047990  -0.016264
      6      -0.043303  -0.120297   0.443643  -0.017201  -0.001901  -0.000151
      7      -0.008084   0.002389  -0.014676  -0.562465  -0.001746   0.019123
      8      -0.044940   0.441014   0.113921  -0.000927   0.000743  -0.001835
      9       0.010419   0.043784   0.008287   0.003736   0.537348   0.159474
     10       0.466602   0.029146   0.054400   0.001869  -0.016244  -0.004888
     11      -0.047065   0.444458   0.159820  -0.000402  -0.047987  -0.016266
     12      -0.043268  -0.120254   0.443562  -0.017306  -0.001902  -0.000147
     13      -0.008078   0.002445  -0.014771  -0.562435  -0.001787   0.019143
     14      -0.044962   0.441079   0.113953  -0.000896   0.000744  -0.001836
     15       0.015771   0.045164  -0.166631   0.013062   0.000939  -0.000086
     16      -0.014739  -0.002055   0.003650   0.427314   0.001340  -0.014520
     17       0.016857  -0.165682  -0.042768   0.000688  -0.000357   0.000877
     18      -0.002714  -0.011029  -0.018128  -0.002825  -0.408186  -0.121173
     19      -0.175281  -0.011120  -0.019953  -0.000884   0.012233   0.003664
     20       0.017567  -0.167040  -0.058500   0.000284   0.036601   0.011872
     21       0.015757   0.045151  -0.166605   0.013140   0.000940  -0.000089
     22      -0.014739  -0.002060   0.003655   0.427291   0.001371  -0.014535
     23       0.016866  -0.165701  -0.042778   0.000665  -0.000357   0.000878
     24      -0.002738  -0.011024  -0.018143  -0.002823  -0.408173  -0.121191
     25      -0.175284  -0.011130  -0.019925  -0.000884   0.012337   0.003695
     26       0.017569  -0.167040  -0.058497   0.000284   0.036599   0.011874
     27      -0.027330  -0.160894   0.441143   0.001775  -0.016554   0.048908
     28       0.460103   0.037123   0.040356   0.001931   0.000707  -0.002213
     29       0.005308   0.006781  -0.043333   0.018758  -0.159515   0.537136
     30      -0.027319  -0.160929   0.441147   0.001775  -0.016547   0.048876
     31       0.460124   0.037049   0.040328   0.001926   0.000747  -0.002348
     32       0.005439   0.006776  -0.043275   0.018776  -0.159560   0.537211
     33       0.010433   0.058884  -0.165742  -0.001335   0.012089  -0.037298
     34      -0.172884  -0.013844  -0.015105  -0.000913  -0.000521   0.001669
     35      -0.000224  -0.018141   0.010727  -0.014251   0.121223  -0.408038
     36       0.010431   0.058898  -0.165741  -0.001336   0.012083  -0.037273
     37      -0.172892  -0.013819  -0.015096  -0.000909  -0.000552   0.001772
     38      -0.000250  -0.018147   0.010729  -0.014264   0.121256  -0.408094
                 36         37         38    
      0       0.000000  -0.000000  -0.000000
      1      -0.000000  -0.000000   0.000000
      2       0.000000   0.000000   0.000000
      3      -0.168833   0.429327  -0.329056
      4       0.005063  -0.012874   0.009867
      5       0.015259  -0.038791   0.029735
      6       0.014014  -0.002105  -0.010073
      7       0.458483  -0.068715  -0.329752
      8       0.000703  -0.000097  -0.000506
      9       0.168795  -0.429338   0.329064
     10      -0.005105   0.012984  -0.009950
     11      -0.015255   0.038791  -0.029735
     12      -0.014100   0.002118   0.010132
     13      -0.458511   0.068710   0.329754
     14      -0.000679   0.000093   0.000489
     15      -0.010398   0.001560   0.007318
     16      -0.340337   0.051000   0.239612
     17      -0.000523   0.000076   0.000368
     18       0.125321  -0.318637   0.239097
     19      -0.003755   0.009551  -0.007166
     20      -0.011326   0.028786  -0.021604
     21       0.010462  -0.001570  -0.007362
     22       0.340358  -0.050998  -0.239614
     23       0.000505  -0.000073  -0.000355
     24      -0.125293   0.318645  -0.239103
     25       0.003786  -0.009632   0.007228
     26       0.011324  -0.028786   0.021604
     27       0.026452   0.033277   0.030285
     28      -0.001153  -0.001457  -0.001327
     29       0.287242   0.361376   0.328948
     30      -0.026425  -0.033244  -0.030260
     31       0.001225   0.001547   0.001409
     32      -0.287185  -0.361310  -0.328937
     33      -0.019637  -0.024698  -0.022012
     34       0.000858   0.001080   0.000964
     35      -0.213230  -0.268226  -0.239035
     36       0.019618   0.024674   0.021993
     37      -0.000911  -0.001147  -0.001024
     38       0.213186   0.268175   0.239026


-----------
IR SPECTRUM
-----------

 Mode   freq       eps      Int      T**2         TX        TY        TZ
       cm**-1   L/(mol*cm) km/mol    a.u.
----------------------------------------------------------------------------
  6:     37.12   0.000000    0.00  0.000000  ( 0.000315  0.000061 -0.000065)
  7:     37.69   0.000000    0.00  0.000000  (-0.000070 -0.000135 -0.000137)
  8:     37.92   0.000000    0.00  0.000000  ( 0.000162 -0.000149 -0.000200)
  9:     54.08   0.000164    0.83  0.000945  (-0.004723  0.029101 -0.008713)
 10:     54.21   0.000165    0.83  0.000949  ( 0.005950 -0.007741 -0.029213)
 11:     54.36   0.000165    0.83  0.000947  (-0.029831 -0.006112 -0.004449)
 12:     57.01   0.000000    0.00  0.000000  ( 0.000006 -0.000002  0.000012)
 13:     57.13   0.000000    0.00  0.000000  (-0.000004 -0.000006 -0.000001)
 14:     57.23   0.000000    0.00  0.000000  ( 0.000013  0.000005 -0.000004)
 15:    250.20   0.009880   49.93  0.012323  (-0.003279 -0.110534  0.009695)
 16:    250.37   0.009854   49.80  0.012283  (-0.010118 -0.009375 -0.109965)
 17:    250.84   0.009848   49.77  0.012252  ( 0.110196 -0.004047 -0.009614)
 18:    272.46   0.000000    0.00  0.000000  (-0.000003 -0.000004 -0.000015)
 19:    273.23   0.000000    0.00  0.000000  ( 0.000015  0.000015 -0.000003)
 20:    274.69   0.000000    0.00  0.000000  ( 0.000001  0.000001  0.000003)
 21:    277.10   0.000000    0.00  0.000000  ( 0.000000 -0.000008  0.000001)
 22:    277.64   0.000000    0.00  0.000000  (-0.000006  0.000019 -0.000002)
 23:    300.61   0.000000    0.00  0.000000  (-0.000009  0.000001  0.000003)
 24:    321.33   0.000000    0.00  0.000000  (-0.000003  0.000002 -0.000002)
 25:    321.44   0.000000    0.00  0.000000  (-0.000008  0.000007 -0.000016)
 26:    321.49   0.000000    0.00  0.000000  (-0.000016  0.000011  0.000009)
 27:    347.80   0.000000    0.00  0.000000  (-0.000069 -0.000274  0.000418)
 28:    348.18   0.000000    0.00  0.000000  (-0.000002  0.000282  0.000569)
 29:    348.25   0.000000    0.00  0.000000  (-0.000456 -0.000047 -0.000460)
 30:    373.31   0.004578   23.14  0.003827  (-0.004063  0.061456 -0.005796)
 31:    373.79   0.004622   23.36  0.003859  (-0.016038  0.004597  0.059839)
 32:    373.98   0.004628   23.39  0.003862  ( 0.059950  0.005408  0.015451)
 33:   2135.88   0.362518  1832.02  0.052966  (-0.004870 -0.229979  0.007184)
 34:   2136.01   0.362588  1832.37  0.052973  ( 0.213675 -0.007103 -0.085237)
 35:   2136.02   0.362846  1833.67  0.053010  ( 0.085672  0.004928  0.213650)
 36:   2157.53   0.000000    0.00  0.000000  (-0.000006 -0.000002  0.000014)
 37:   2157.68   0.000000    0.00  0.000000  ( 0.000002  0.000023  0.000013)
 38:   2224.20   0.000000    0.00  0.000000  ( 0.000006  0.000001  0.000002)

* The epsilon (eps) is given for a Dirac delta lineshape.
** The dipole moment derivative (T) already includes vibrational overlap.

The first frequency considered to be a vibration is 6
The total number of vibrations considered is 33


--------------------------
THERMOCHEMISTRY AT 298.15K
--------------------------

Temperature         ... 298.15 K
Pressure            ... 1.00 atm
Total Mass          ... 346.55 AMU

Throughout the following assumptions are being made:
  (1) The electronic state is orbitally nondegenerate
      but the spin degeneracy is treated
  (2) There are no thermally accessible electronically excited states
  (3) Hindered rotations indicated by low frequency modes are not
      treated as such but are treated as vibrations and this may
      cause some error
  (4) All equations used are the standard statistical mechanics
      equations for an ideal gas
  (5) All vibrations are strictly harmonic

freq.      37.12  E(vib)   ...       0.54 
freq.      37.69  E(vib)   ...       0.54 
freq.      37.92  E(vib)   ...       0.54 
freq.      54.08  E(vib)   ...       0.52 
freq.      54.21  E(vib)   ...       0.52 
freq.      54.36  E(vib)   ...       0.52 
freq.      57.01  E(vib)   ...       0.51 
freq.      57.13  E(vib)   ...       0.51 
freq.      57.23  E(vib)   ...       0.51 
freq.     250.20  E(vib)   ...       0.31 
freq.     250.37  E(vib)   ...       0.30 
freq.     250.84  E(vib)   ...       0.30 
freq.     272.46  E(vib)   ...       0.29 
freq.     273.23  E(vib)   ...       0.29 
freq.     274.69  E(vib)   ...       0.28 
freq.     277.10  E(vib)   ...       0.28 
freq.     277.64  E(vib)   ...       0.28 
freq.     300.61  E(vib)   ...       0.26 
freq.     321.33  E(vib)   ...       0.25 
freq.     321.44  E(vib)   ...       0.25 
freq.     321.49  E(vib)   ...       0.25 
freq.     347.80  E(vib)   ...       0.23 
freq.     348.18  E(vib)   ...       0.23 
freq.     348.25  E(vib)   ...       0.23 
freq.     373.31  E(vib)   ...       0.21 
freq.     373.79  E(vib)   ...       0.21 
freq.     373.98  E(vib)   ...       0.21 
freq.    2135.88  E(vib)   ...       0.00 
freq.    2136.01  E(vib)   ...       0.00 
freq.    2136.02  E(vib)   ...       0.00 
freq.    2157.53  E(vib)   ...       0.00 
freq.    2157.68  E(vib)   ...       0.00 
freq.    2224.20  E(vib)   ...       0.00 

------------
INNER ENERGY
------------

The inner energy is: U= E(el) + E(ZPE) + E(vib) + E(rot) + E(trans)
    E(el)   - is the total energy from the electronic structure calculation
              = E(kin-el) + E(nuc-el) + E(el-el) + E(nuc-nuc)
    E(ZPE)  - the the zero temperature vibrational energy from the frequency calculation
    E(vib)  - the the finite temperature correction to E(ZPE) due to population
              of excited vibrational states
    E(rot)  - is the rotational thermal energy
    E(trans)- is the translational thermal energy

Summary of contributions to the inner energy U:
Electronic energy                ...   -727.72187534 Eh
Zero point energy                ...      0.04317305 Eh      27.09 kcal/mol
Thermal vibrational correction   ...      0.01494247 Eh       9.38 kcal/mol
Thermal rotational correction    ...      0.00141627 Eh       0.89 kcal/mol
Thermal translational correction ...      0.00141627 Eh       0.89 kcal/mol
-----------------------------------------------------------------------
Total thermal energy                   -727.66092728 Eh


Summary of corrections to the electronic energy:
(perhaps to be used in another calculation)
Total thermal correction                  0.01777501 Eh      11.15 kcal/mol
Non-thermal (ZPE) correction              0.04317305 Eh      27.09 kcal/mol
-----------------------------------------------------------------------
Total correction                          0.06094806 Eh      38.25 kcal/mol


--------
ENTHALPY
--------

The enthalpy is H = U + kB*T
                kB is Boltzmann's constant
Total free energy                 ...   -727.66092728 Eh 
Thermal Enthalpy correction       ...      0.00094421 Eh       0.59 kcal/mol
-----------------------------------------------------------------------
Total Enthalpy                    ...   -727.65998307 Eh


Note: Only C1 symmetry has been detected, increase convergence thresholds 
      if your molecule has a higher symmetry. Symmetry factor of 1.0 is   
      used for the rotational entropy correction. 
 

Note: Rotational entropy computed according to Herzberg 
Infrared and Raman Spectra, Chapter V,1, Van Nostrand Reinhold, 1945 
Point Group:  C1, Symmetry Number:   1  
Rotational constants in cm-1:     0.016431     0.016420     0.016410 

Vibrational entropy computed according to the QRRHO of S. Grimme
Chem.Eur.J. 2012 18 9955


-------
ENTROPY
-------

The entropy contributions are T*S = T*(S(el)+S(vib)+S(rot)+S(trans))
     S(el)   - electronic entropy
     S(vib)  - vibrational entropy
     S(rot)  - rotational entropy
     S(trans)- translational entropy
The entropies will be listed as multiplied by the temperature to get
units of energy

Electronic entropy                ...      0.00130891 Eh      0.82 kcal/mol
Vibrational entropy               ...      0.02752706 Eh     17.27 kcal/mol
Rotational entropy                ...      0.01533058 Eh      9.62 kcal/mol
Translational entropy             ...      0.02063146 Eh     12.95 kcal/mol
-----------------------------------------------------------------------
Final entropy term                ...      0.06479801 Eh     40.66 kcal/mol

In case the symmetry of your molecule has not been determined correctly
or in case you have a reason to use a different symmetry number we print 
out the resulting rotational entropy values for sn=1,12 :
 --------------------------------------------------------
|  sn= 1 | S(rot)=       0.01533058 Eh      9.62 kcal/mol|
|  sn= 2 | S(rot)=       0.01467612 Eh      9.21 kcal/mol|
|  sn= 3 | S(rot)=       0.01429329 Eh      8.97 kcal/mol|
|  sn= 4 | S(rot)=       0.01402166 Eh      8.80 kcal/mol|
|  sn= 5 | S(rot)=       0.01381098 Eh      8.67 kcal/mol|
|  sn= 6 | S(rot)=       0.01363883 Eh      8.56 kcal/mol|
|  sn= 7 | S(rot)=       0.01349329 Eh      8.47 kcal/mol|
|  sn= 8 | S(rot)=       0.01336721 Eh      8.39 kcal/mol|
|  sn= 9 | S(rot)=       0.01325600 Eh      8.32 kcal/mol|
|  sn=10 | S(rot)=       0.01315652 Eh      8.26 kcal/mol|
|  sn=11 | S(rot)=       0.01306653 Eh      8.20 kcal/mol|
|  sn=12 | S(rot)=       0.01298437 Eh      8.15 kcal/mol|
 --------------------------------------------------------


-------------------
GIBBS FREE ENERGY
-------------------

The Gibbs free energy is G = H - T*S

Total enthalpy                    ...   -727.65998307 Eh 
Total entropy correction          ...     -0.06479801 Eh    -40.66 kcal/mol
-----------------------------------------------------------------------
Final Gibbs free energy         ...   -727.72478108 Eh

For completeness - the Gibbs free energy minus the electronic energy
G-E(el)                           ...     -0.00290574 Eh     -1.82 kcal/mol


Timings for individual modules:

Sum of individual times         ...     2507.818 sec (=  41.797 min)
GTO integral calculation        ...        9.747 sec (=   0.162 min)   0.4 %
SCF iterations                  ...      497.780 sec (=   8.296 min)  19.8 %
SCF Gradient evaluation         ...      153.127 sec (=   2.552 min)   6.1 %
Geometry relaxation             ...        0.256 sec (=   0.004 min)   0.0 %
Analytical frequency calculation...     1846.908 sec (=  30.782 min)  73.6 %
                             ****ORCA TERMINATED NORMALLY****
TOTAL RUN TIME: 0 days 0 hours 41 minutes 48 seconds 959 msec
