
                                 *****************
                                 * O   R   C   A *
                                 *****************

                                            #,                                       
                                            ###                                      
                                            ####                                     
                                            #####                                    
                                            ######                                   
                                           ########,                                 
                                     ,,################,,,,,                         
                               ,,#################################,,                 
                          ,,##########################################,,             
                       ,#########################################, ''#####,          
                    ,#############################################,,   '####,        
                  ,##################################################,,,,####,       
                ,###########''''           ''''###############################       
              ,#####''   ,,,,##########,,,,          '''####'''          '####       
            ,##' ,,,,###########################,,,                        '##       
           ' ,,###''''                  '''############,,,                           
         ,,##''                                '''############,,,,        ,,,,,,###''
      ,#''                                            '''#######################'''  
     '                                                          ''''####''''         
             ,#######,   #######,   ,#######,      ##                                
            ,#'     '#,  ##    ##  ,#'     '#,    #''#        ######   ,####,        
            ##       ##  ##   ,#'  ##            #'  '#       #        #'  '#        
            ##       ##  #######   ##           ,######,      #####,   #    #        
            '#,     ,#'  ##    ##  '#,     ,#' ,#      #,         ##   #,  ,#        
             '#######'   ##     ##  '#######'  #'      '#     #####' # '####'        



                  #######################################################
                  #                        -***-                        #
                  #          Department of theory and spectroscopy      #
                  #    Directorship and core code : Frank Neese         #
                  #        Max Planck Institute fuer Kohlenforschung    #
                  #                Kaiser Wilhelm Platz 1               #
                  #                 D-45470 Muelheim/Ruhr               #
                  #                      Germany                        #
                  #                                                     #
                  #                  All rights reserved                #
                  #                        -***-                        #
                  #######################################################



                         Program Version 5.0.4 -  RELEASE  -

 With contributions from (in alphabetic order):
   Daniel Aravena         : Magnetic Suceptibility
   Michael Atanasov       : Ab Initio Ligand Field Theory (pilot matlab implementation)
   Alexander A. Auer      : GIAO ZORA, VPT2 properties, NMR spectrum
   Ute Becker             : Parallelization
   Giovanni Bistoni       : ED, misc. LED, open-shell LED, HFLD
   Martin Brehm           : Molecular dynamics
   Dmytro Bykov           : SCF Hessian
   Vijay G. Chilkuri      : MRCI spin determinant printing, contributions to CSF-ICE
   Dipayan Datta          : RHF DLPNO-CCSD density
   Achintya Kumar Dutta   : EOM-CC, STEOM-CC
   Dmitry Ganyushin       : Spin-Orbit,Spin-Spin,Magnetic field MRCI
   Miquel Garcia          : C-PCM and meta-GGA Hessian, CC/C-PCM, Gaussian charge scheme
   Yang Guo               : DLPNO-NEVPT2, F12-NEVPT2, CIM, IAO-localization
   Andreas Hansen         : Spin unrestricted coupled pair/coupled cluster methods
   Benjamin Helmich-Paris : MC-RPA, TRAH-SCF, COSX integrals
   Lee Huntington         : MR-EOM, pCC
   Robert Izsak           : Overlap fitted RIJCOSX, COSX-SCS-MP3, EOM
   Marcus Kettner         : VPT2
   Christian Kollmar      : KDIIS, OOCD, Brueckner-CCSD(T), CCSD density, CASPT2, CASPT2-K
   Simone Kossmann        : Meta GGA functionals, TD-DFT gradient, OOMP2, MP2 Hessian
   Martin Krupicka        : Initial AUTO-CI
   Lucas Lang             : DCDCAS
   Marvin Lechner         : AUTO-CI (C++ implementation), FIC-MRCC
   Dagmar Lenk            : GEPOL surface, SMD
   Dimitrios Liakos       : Extrapolation schemes; Compound Job, initial MDCI parallelization
   Dimitrios Manganas     : Further ROCIS development; embedding schemes
   Dimitrios Pantazis     : SARC Basis sets
   Anastasios Papadopoulos: AUTO-CI, single reference methods and gradients
   Taras Petrenko         : DFT Hessian,TD-DFT gradient, ASA, ECA, R-Raman, ABS, FL, XAS/XES, NRVS
   Peter Pinski           : DLPNO-MP2, DLPNO-MP2 Gradient
   Christoph Reimann      : Effective Core Potentials
   Marius Retegan         : Local ZFS, SOC
   Christoph Riplinger    : Optimizer, TS searches, QM/MM, DLPNO-CCSD(T), (RO)-DLPNO pert. Triples
   Tobias Risthaus        : Range-separated hybrids, TD-DFT gradient, RPA, STAB
   Michael Roemelt        : Original ROCIS implementation
   Masaaki Saitow         : Open-shell DLPNO-CCSD energy and density
   Barbara Sandhoefer     : DKH picture change effects
   Avijit Sen             : IP-ROCIS
   Kantharuban Sivalingam : CASSCF convergence, NEVPT2, FIC-MRCI
   Bernardo de Souza      : ESD, SOC TD-DFT
   Georgi Stoychev        : AutoAux, RI-MP2 NMR, DLPNO-MP2 response
   Willem Van den Heuvel  : Paramagnetic NMR
   Boris Wezisla          : Elementary symmetry handling
   Frank Wennmohs         : Technical directorship


 We gratefully acknowledge several colleagues who have allowed us to
 interface, adapt or use parts of their codes:
   Stefan Grimme, W. Hujo, H. Kruse, P. Pracht,  : VdW corrections, initial TS optimization,
                  C. Bannwarth, S. Ehlert          DFT functionals, gCP, sTDA/sTD-DF
   Ed Valeev, F. Pavosevic, A. Kumar             : LibInt (2-el integral package), F12 methods
   Garnet Chan, S. Sharma, J. Yang, R. Olivares  : DMRG
   Ulf Ekstrom                                   : XCFun DFT Library
   Mihaly Kallay                                 : mrcc  (arbitrary order and MRCC methods)
   Jiri Pittner, Ondrej Demel                    : Mk-CCSD
   Frank Weinhold                                : gennbo (NPA and NBO analysis)
   Christopher J. Cramer and Donald G. Truhlar   : smd solvation model
   Lars Goerigk                                  : TD-DFT with DH, B97 family of functionals
   V. Asgeirsson, H. Jonsson                     : NEB implementation
   FAccTs GmbH                                   : IRC, NEB, NEB-TS, DLPNO-Multilevel, CI-OPT
                                                   MM, QMMM, 2- and 3-layer-ONIOM, Crystal-QMMM,
                                                   LR-CPCM, SF, NACMEs, symmetry and pop. for TD-DFT,
                                                   nearIR, NL-DFT gradient (VV10), updates on ESD,
                                                   ML-optimized integration grids
   S Lehtola, MJT Oliveira, MAL Marques          : LibXC Library
   Liviu Ungur et al                             : ANISO software


 Your calculation uses the libint2 library for the computation of 2-el integrals
 For citations please refer to: http://libint.valeyev.net

 Your ORCA version has been built with support for libXC version: 5.1.0
 For citations please refer to: https://tddft.org/programs/libxc/

 This ORCA versions uses:
   CBLAS   interface :  Fast vector & matrix operations
   LAPACKE interface :  Fast linear algebra routines
   Shared memory     :  Shared parallel matrices


================================================================================

cite the ECPs for Hf [Def2-ECP] as follows:
Ce-Yb(ecp-28): M. Dolg, H. Stoll, H.Preuss, J. Chem. Phys., 1989, 90, 1730-1734.
Y-Cd(ecp-28), Hf-Hg(ecp-46): D. Andrae,U. Haeussermann, M. Dolg, H. Stoll, H. Preuss, Theor. Chim. Acta, 1990, 77, 123-141.
In-Sb(ecp-28), Tl-Bi(ecp-46): B. Metz, H. Stoll, M. Dolg, J. Chem. Phys., 2000, 113, 2563-2569.
Te-Xe(ecp-28), Po-Rn(ecp-46): K. A. Peterson, D. Figgen, E. Goll, H. Stoll, M. Dolg, J. Chem. Phys., 2003, 119, 11113-11123.
Rb(ecp-28), Cs(ecp-46): T. Leininger, A. Nicklass, W. Kuechle, H. Stoll, M. Dolg, A. Bergner, Chem. Phys. Lett., 1996, 255, 274-280.
Sr(ecp-28), Ba(ecp-46): M. Kaupp, P. V. Schleyer, H. Stoll and H. Preuss, J. Chem. Phys., 1991, 94, 1360-1366.
La(ecp-46): M. Dolg, H. Stoll, A. Savin, H. Preuss, Theor. Chim. Acta, 1989, 75, 173-194.
Lu(ecp-28): X. Cao, M. Dolg, J. Chem. Phys., 2001, 115, 7348-7355.

ECP parameters for Hf [Def2-ECP] have been obtained from:
TURBOMOLE (7.0.2)

----- Orbital basis set information -----
Your calculation utilizes the basis: def2-TZVPD
   F. Weigend and R. Ahlrichs, Phys. Chem. Chem. Phys. 7, 3297 (2005).
   D. Rappoport and F. Furche, J. Chem. Phys. 133 134105 (2010).

----- AuxJ basis set information -----
Your calculation utilizes the auxiliary basis: def2/J
   F. Weigend, Phys. Chem. Chem. Phys. 8, 1057 (2006).

================================================================================
                                        WARNINGS
                       Please study these warnings very carefully!
================================================================================


WARNING: Geometry Optimization
  ===> : Switching off AutoStart
         For restart on a previous wavefunction, please use MOREAD

INFO   : the flag for use of the SHARK integral package has been found!

================================================================================
                                       INPUT FILE
================================================================================
NAME = HfCO6-2.inp
|  1> !B3LYP def2-TZVPD OPT FREQ TightSCF PAL8

|  2> 

|  3> %scf

|  4>   MaxIter 300

|  5> end

|  6> 

|  7> * xyz -2 1 

|  8> Hf        -0.43733        0.82114       -0.00327

|  9> C          1.85069        0.75179       -0.21043

| 10> C         -0.36713        3.11851        0.00002

| 11> C         -2.72538        0.89099        0.20388

| 12> C         -0.50743       -1.47623       -0.00656

| 13> O         -0.33267        4.24599        0.00163

| 14> O          2.97368        0.71783       -0.31146

| 15> O         -0.54180       -2.60370       -0.00817

| 16> O         -3.84828        0.92536        0.30489

| 17> C         -0.64818        0.83067       -2.29202

| 18> C         -0.22660        0.81111        2.28546

| 19> O         -0.75232        0.83529       -3.41517

| 20> O         -0.12255        0.80608        3.40866

| 21> **                         ****END OF INPUT****
================================================================================

                       *****************************
                       * Geometry Optimization Run *
                       *****************************

Geometry optimization settings:
Update method            Update   .... BFGS
Choice of coordinates    CoordSys .... Z-matrix Internals
Initial Hessian          InHess   .... Almoef's Model

Convergence Tolerances:
Energy Change            TolE     ....  5.0000e-06 Eh
Max. Gradient            TolMAXG  ....  3.0000e-04 Eh/bohr
RMS Gradient             TolRMSG  ....  1.0000e-04 Eh/bohr
Max. Displacement        TolMAXD  ....  4.0000e-03 bohr
RMS Displacement         TolRMSD  ....  2.0000e-03 bohr
Strict Convergence                ....  False
------------------------------------------------------------------------------
                        ORCA OPTIMIZATION COORDINATE SETUP
------------------------------------------------------------------------------

The optimization will be done in new redundant internal coordinates
Making redundant internal coordinates   ...  (new redundants) done
Evaluating the initial hessian          ...  (Almloef) done
Evaluating the coordinates              ...  done
Calculating the B-matrix                .... done
Calculating the G-matrix                .... done
Diagonalizing the G-matrix              .... done
The first mode is                       ....    3
The number of degrees of freedom        ....   33

    -----------------------------------------------------------------
                    Redundant Internal Coordinates


    -----------------------------------------------------------------
         Definition                    Initial Value    Approx d2E/dq
    -----------------------------------------------------------------
      1. B(C   1,Hf  0)                  2.2984         0.051684   
      2. B(C   2,Hf  0)                  2.2984         0.051680   
      3. B(C   3,Hf  0)                  2.2985         0.051675   
      4. B(C   4,Hf  0)                  2.2984         0.051681   
      5. B(O   5,C   2)                  1.1280         1.465101   
      6. B(O   6,C   1)                  1.1280         1.464944   
      7. B(O   7,C   4)                  1.1280         1.465170   
      8. B(O   8,C   3)                  1.1280         1.465369   
      9. B(C   9,Hf  0)                  2.2985         0.051677   
     10. B(C  10,Hf  0)                  2.2984         0.051682   
     11. B(O  11,C   9)                  1.1280         1.465265   
     12. B(O  12,C  10)                  1.1280         1.465032   
     13. A(C   3,Hf  0,C   9)           89.9025         0.214951   
     14. A(C   2,Hf  0,C   9)           90.0047         0.214953   
     15. A(C   1,Hf  0,C  10)           89.9055         0.214958   
     16. A(C   4,Hf  0,C  10)           89.9920         0.214957   
     17. A(C   2,Hf  0,C  10)           90.0078         0.214956   
     18. A(C   4,Hf  0,C   9)           89.9955         0.214953   
     19. A(C   3,Hf  0,C  10)           90.0949         0.214954   
     20. A(C   3,Hf  0,C   4)           90.0082         0.214953   
     21. A(C   1,Hf  0,C   2)           89.9933         0.214957   
     22. A(C   2,Hf  0,C   3)           89.9942         0.214952   
     23. A(C   1,Hf  0,C   4)           90.0042         0.214957   
     24. A(C   1,Hf  0,C   9)           90.0971         0.214955   
     25. L(Hf  0,C   1,O   6,C  10, 1) 179.9673         0.340188   
     26. L(Hf  0,C   1,O   6,C  10, 2) 180.0057         0.340188   
     27. L(Hf  0,C   2,O   5,C   1, 2) 179.9997         0.340190   
     28. L(Hf  0,C   2,O   5,C   1, 1) 179.9996         0.340190   
     29. L(Hf  0,C   3,O   8,C   9, 2) 180.0064         0.340195   
     30. L(Hf  0,C   3,O   8,C   9, 1) 179.9670         0.340195   
     31. L(Hf  0,C   4,O   7,C  10, 2) 180.0023         0.340193   
     32. L(Hf  0,C   4,O   7,C  10, 1) 179.9996         0.340193   
     33. L(Hf  0,C   9,O  11,C   3, 2) 180.0055         0.340193   
     34. L(Hf  0,C   9,O  11,C   3, 1) 179.9662         0.340193   
     35. L(Hf  0,C  10,O  12,C   1, 2) 180.0063         0.340190   
     36. L(Hf  0,C  10,O  12,C   1, 1) 179.9678         0.340190   
    -----------------------------------------------------------------

Number of atoms                         .... 13
Number of degrees of freedom            .... 36

         *************************************************************
         *                GEOMETRY OPTIMIZATION CYCLE   1            *
         *************************************************************
---------------------------------
CARTESIAN COORDINATES (ANGSTROEM)
---------------------------------
  Hf    -0.437330    0.821140   -0.003270
  C      1.850690    0.751790   -0.210430
  C     -0.367130    3.118510    0.000020
  C     -2.725380    0.890990    0.203880
  C     -0.507430   -1.476230   -0.006560
  O     -0.332670    4.245990    0.001630
  O      2.973680    0.717830   -0.311460
  O     -0.541800   -2.603700   -0.008170
  O     -3.848280    0.925360    0.304890
  C     -0.648180    0.830670   -2.292020
  C     -0.226600    0.811110    2.285460
  O     -0.752320    0.835290   -3.415170
  O     -0.122550    0.806080    3.408660

----------------------------
CARTESIAN COORDINATES (A.U.)
----------------------------
  NO LB      ZA    FRAG     MASS         X           Y           Z
   0 Hf   12.0000*   0   178.490   -0.826434    1.551730   -0.006179
   1 C     6.0000    0    12.011    3.497297    1.420677   -0.397655
   2 C     6.0000    0    12.011   -0.693775    5.893130    0.000038
   3 C     6.0000    0    12.011   -5.150222    1.683727    0.385277
   4 C     6.0000    0    12.011   -0.958904   -2.789670   -0.012397
   5 O     8.0000    0    15.999   -0.628655    8.023758    0.003080
   6 O     8.0000    0    15.999    5.619441    1.356502   -0.588574
   7 O     8.0000    0    15.999   -1.023854   -4.920280   -0.015439
   8 O     8.0000    0    15.999   -7.272195    1.748677    0.576159
   9 C     6.0000    0    12.011   -1.224883    1.569739   -4.331290
  10 C     6.0000    0    12.011   -0.428212    1.532776    4.318893
  11 O     8.0000    0    15.999   -1.421679    1.578469   -6.453736
  12 O     8.0000    0    15.999   -0.231586    1.523270    6.441434
* core charge reduced due to ECP

--------------------------------
INTERNAL COORDINATES (ANGSTROEM)
--------------------------------
 Hf     0   0   0     0.000000000000     0.00000000     0.00000000
 C      1   0   0     2.298425593423     0.00000000     0.00000000
 C      1   2   0     2.298444643884    89.99333164     0.00000000
 C      1   2   3     2.298469696885   179.98755957     1.69360706
 C      1   2   3     2.298441591818    90.00418684   180.00022447
 O      3   1   2     1.128007639203   179.99953259    25.06024110
 O      2   1   3     1.128036738143   179.96705257    83.02433160
 O      5   1   2     1.127994897994   179.99832515    13.22061986
 O      4   1   2     1.127957768270   179.96666714    80.51700504
 C      1   2   3     2.298461464959    90.09709529    90.00473603
 C      1   2   3     2.298432671779    89.90546033   269.99218602
 O     10   1   2     1.127977130309   179.96597053   173.40112571
 O     11   1   2     1.128020364798   179.96748502   352.06131053

---------------------------
INTERNAL COORDINATES (A.U.)
---------------------------
 Hf     0   0   0     0.000000000000     0.00000000     0.00000000
 C      1   0   0     4.343394910764     0.00000000     0.00000000
 C      1   2   0     4.343430910919    89.99333164     0.00000000
 C      1   2   3     4.343478254230   179.98755957     1.69360706
 C      1   2   3     4.343425143351    90.00418684   180.00022447
 O      3   1   2     2.131625515064   179.99953259    25.06024110
 O      2   1   3     2.131680504092   179.96705257    83.02433160
 O      5   1   2     2.131601437669   179.99832515    13.22061986
 O      4   1   2     2.131531272659   179.96666714    80.51700504
 C      1   2   3     4.343462698143    90.09709529    90.00473603
 C      1   2   3     4.343408286919    89.90546033   269.99218602
 O     10   1   2     2.131567861610   179.96597053   173.40112571
 O     11   1   2     2.131649562955   179.96748502   352.06131053

---------------------
BASIS SET INFORMATION
---------------------
There are 3 groups of distinct atoms

 Group   1 Type Hf  : 9s8p5d1f contracted to 6s5p3d1f pattern {411111/41111/311/1}
 Group   2 Type C   : 12s6p3d1f contracted to 6s3p3d1f pattern {621111/411/111/1}
 Group   3 Type O   : 12s7p3d1f contracted to 6s4p3d1f pattern {621111/4111/111/1}

Atom   0Hf   basis set group =>   1
Atom   1C    basis set group =>   2
Atom   2C    basis set group =>   2
Atom   3C    basis set group =>   2
Atom   4C    basis set group =>   2
Atom   5O    basis set group =>   3
Atom   6O    basis set group =>   3
Atom   7O    basis set group =>   3
Atom   8O    basis set group =>   3
Atom   9C    basis set group =>   2
Atom  10C    basis set group =>   2
Atom  11O    basis set group =>   3
Atom  12O    basis set group =>   3
---------------------------------
AUXILIARY/J BASIS SET INFORMATION
---------------------------------
There are 3 groups of distinct atoms

 Group   1 Type Hf  : 11s5p5d3f3g contracted to 8s5p5d2f3g pattern {41111111/11111/11111/21/111}
 Group   2 Type C   : 12s5p4d2f1g contracted to 6s4p3d1f1g pattern {711111/2111/211/2/1}
 Group   3 Type O   : 12s5p4d2f1g contracted to 6s4p3d1f1g pattern {711111/2111/211/2/1}

Atom   0Hf   basis set group =>   1
Atom   1C    basis set group =>   2
Atom   2C    basis set group =>   2
Atom   3C    basis set group =>   2
Atom   4C    basis set group =>   2
Atom   5O    basis set group =>   3
Atom   6O    basis set group =>   3
Atom   7O    basis set group =>   3
Atom   8O    basis set group =>   3
Atom   9C    basis set group =>   2
Atom  10C    basis set group =>   2
Atom  11O    basis set group =>   3
Atom  12O    basis set group =>   3
-------------------------
ECP PARAMETER INFORMATION
-------------------------

 Group 1, Type Hf ECP Def2-ECP (replacing 60 core electrons, lmax=3)

Atom   0Hf   ECP group =>   1



           ************************************************************
           *        Program running with 8 parallel MPI-processes     *
           *              working on a common directory               *
           ************************************************************
------------------------------------------------------------------------------
                           ORCA GTO INTEGRAL CALCULATION
                           -- RI-GTO INTEGRALS CHOSEN --
------------------------------------------------------------------------------
------------------------------------------------------------------------------
                   ___                                                        
                  /   \      - P O W E R E D   B Y -                         
                 /     \                                                     
                 |  |  |   _    _      __       _____    __    __             
                 |  |  |  | |  | |    /  \     |  _  \  |  |  /  |          
                  \  \/   | |  | |   /    \    | | | |  |  | /  /          
                 / \  \   | |__| |  /  /\  \   | |_| |  |  |/  /          
                |  |  |   |  __  | /  /__\  \  |    /   |      \           
                |  |  |   | |  | | |   __   |  |    \   |  |\   \          
                \     /   | |  | | |  |  |  |  | |\  \  |  | \   \       
                 \___/    |_|  |_| |__|  |__|  |_| \__\ |__|  \__/        
                                                                              
                      - O R C A' S   B I G   F R I E N D -                    
                                      &                                       
                       - I N T E G R A L  F E E D E R -                       
                                                                              
 v1 FN, 2020, v2 2021                                                         
------------------------------------------------------------------------------


Reading SHARK input file HfCO6-2.SHARKINP.tmp ... ok
----------------------
SHARK INTEGRAL PACKAGE
----------------------

Number of atoms                             ...     13
Number of basis functions                   ...    505
Number of shells                            ...    177
Maximum angular momentum                    ...      3
Integral batch strategy                     ... SHARK/LIBINT Hybrid
RI-J (if used) integral strategy            ... SPLIT-RIJ (Revised 2003 algorithm where possible)
Printlevel                                  ...      1
Contraction scheme used                     ... SEGMENTED contraction
Coulomb Range Separation                    ... NOT USED
Exchange Range Separation                   ... NOT USED
Finite Nucleus Model                        ... NOT USED
Auxiliary Coulomb fitting basis             ... AVAILABLE
   # of basis functions in Aux-J            ...    677
   # of shells in Aux-J                     ...    203
   Maximum angular momentum in Aux-J        ...      4
Auxiliary J/K fitting basis                 ... NOT available
Auxiliary Correlation fitting basis         ... NOT available
Auxiliary 'external' fitting basis          ... NOT available
Integral threshold                          ...     2.500000e-11
Primitive cut-off                           ...     2.500000e-12
Primitive pair pre-selection threshold      ...     2.500000e-12

Calculating pre-screening integrals         ... done (  0.0 sec) Dimension = 177
Organizing shell pair data                  ... done (  0.2 sec)
Shell pair information
Total number of shell pairs                 ...     15753
Shell pairs after pre-screening             ...     13200
Total number of primitive shell pairs       ...     43350
Primitive shell pairs kept                  ...     26309
          la=0 lb=0:   2385 shell pairs
          la=1 lb=0:   3156 shell pairs
          la=1 lb=1:   1041 shell pairs
          la=2 lb=0:   2532 shell pairs
          la=2 lb=1:   1659 shell pairs
          la=2 lb=2:    687 shell pairs
          la=3 lb=0:    756 shell pairs
          la=3 lb=1:    533 shell pairs
          la=3 lb=2:    381 shell pairs
          la=3 lb=3:     70 shell pairs

Calculating one electron integrals          ... done (  0.0 sec)
Calculating ECP integrals                   ... done (  1.1 sec)
Calculating RI/J V-Matrix + Cholesky decomp.... done (  0.1 sec)
Calculating Nuclear repulsion               ... done (  0.0 sec) ENN=    679.356281637222 Eh

SHARK setup successfully completed in   1.6 seconds

Maximum memory used throughout the entire GTOINT-calculation: 25.2 MB


           ************************************************************
           *        Program running with 8 parallel MPI-processes     *
           *              working on a common directory               *
           ************************************************************
-------------------------------------------------------------------------------
                                 ORCA SCF
-------------------------------------------------------------------------------

------------
SCF SETTINGS
------------
Hamiltonian:
 Density Functional     Method          .... DFT(GTOs)
 Exchange Functional    Exchange        .... B88
   X-Alpha parameter    XAlpha          ....  0.666667
   Becke's b parameter  XBeta           ....  0.004200
 Correlation Functional Correlation     .... LYP
 LDA part of GGA corr.  LDAOpt          .... VWN-5
 Gradients option       PostSCFGGA      .... off
 Hybrid DFT is turned on
   Fraction HF Exchange ScalHFX         ....  0.200000
   Scaling of DF-GGA-X  ScalDFX         ....  0.720000
   Scaling of DF-GGA-C  ScalDFC         ....  0.810000
   Scaling of DF-LDA-C  ScalLDAC        ....  1.000000
   Perturbative correction              ....  0.000000
   Density functional embedding theory  .... OFF
   NL short-range parameter             ....  4.800000
 RI-approximation to the Coulomb term is turned on
   Number of AuxJ basis functions       .... 677
   RIJ-COSX (HFX calculated with COS-X)).... on


General Settings:
 Integral files         IntName         .... HfCO6-2
 Hartree-Fock type      HFTyp           .... RHF
 Total Charge           Charge          ....   -2
 Multiplicity           Mult            ....    1
 Number of Electrons    NEL             ....   98
 Basis Dimension        Dim             ....  505
 Nuclear Repulsion      ENuc            ....    679.3562816372 Eh

Convergence Acceleration:
 DIIS                   CNVDIIS         .... on
   Start iteration      DIISMaxIt       ....    12
   Startup error        DIISStart       ....  0.200000
   # of expansion vecs  DIISMaxEq       ....     5
   Bias factor          DIISBfac        ....   1.050
   Max. coefficient     DIISMaxC        ....  10.000
 Trust-Rad. Augm. Hess. CNVTRAH         .... auto
   Auto Start mean grad. ratio tolernc. ....  1.125000
   Auto Start start iteration           ....    20
   Auto Start num. interpolation iter.  ....    10
   Max. Number of Micro iterations      ....    16
   Max. Number of Macro iterations      .... Maxiter - #DIIS iter
   Number of Davidson start vectors     ....     2
   Converg. threshold I  (grad. norm)   ....   1.000e-05
   Converg. threshold II (energy diff.) ....   1.000e-08
   Grad. Scal. Fac. for Micro threshold ....   0.100
   Minimum threshold for Micro iter.    ....   0.010
   NR start threshold (gradient norm)   ....   0.001
   Initial trust radius                 ....   0.400
   Minimum AH scaling param. (alpha)    ....   1.000
   Maximum AH scaling param. (alpha)    .... 1000.000
   Orbital update algorithm             .... Taylor
   White noise on init. David. guess    .... on
   Maximum white noise                  ....   0.010
   Quad. conv. algorithm                .... NR
 SOSCF                  CNVSOSCF        .... off
 Level Shifting         CNVShift        .... on
   Level shift para.    LevelShift      ....    0.2500
   Turn off err/grad.   ShiftErr        ....    0.0010
 Zerner damping         CNVZerner       .... off
 Static damping         CNVDamp         .... on
   Fraction old density DampFac         ....    0.7000
   Max. Damping (<1)    DampMax         ....    0.9800
   Min. Damping (>=0)   DampMin         ....    0.0000
   Turn off err/grad.   DampErr         ....    0.1000
 Fernandez-Rico         CNVRico         .... off

SCF Procedure:
 Maximum # iterations   MaxIter         ....   300
 SCF integral mode      SCFMode         .... Direct
   Integral package                     .... SHARK and LIBINT hybrid scheme
 Reset frequency        DirectResetFreq ....    20
 Integral Threshold     Thresh          ....  2.500e-11 Eh
 Primitive CutOff       TCut            ....  2.500e-12 Eh

Convergence Tolerance:
 Convergence Check Mode ConvCheckMode   .... Total+1el-Energy
 Convergence forced     ConvForced      .... 0
 Energy Change          TolE            ....  1.000e-08 Eh
 1-El. energy change                    ....  1.000e-05 Eh
 DIIS Error             TolErr          ....  5.000e-07


Diagonalization of the overlap matrix:
Smallest eigenvalue                        ... 8.576e-06
Time for diagonalization                   ...    0.076 sec
Threshold for overlap eigenvalues          ... 1.000e-08
Number of eigenvalues below threshold      ... 0
Time for construction of square roots      ...    0.124 sec
Total time needed                          ...    0.201 sec

Time for model grid setup =    0.172 sec

------------------------------
INITIAL GUESS: MODEL POTENTIAL
------------------------------
Loading Hartree-Fock densities                     ... done
  calling C:\orca_5_0_4\orca HfCO6-2_atom72.inp > HfCO6-2_atom72.out in order to generate an atomic fitting density for atom 0 (Hf with ECP) on-the-fly... 
    atom 0 (Hf), assumed electronic state with S=3: 1s2 2s2 2p6 3s2 3p6 4s2 3d10 4p6 5s2 4d10 5p6 6s2 4f14 5d2           ... done
Calculating cut-offs                               ... done
Initializing the effective Hamiltonian             ... done
Setting up the integral package (SHARK)            ... done
Starting the Coulomb interaction                   ... done (   0.1 sec)
Reading the grid                                   ... done
Mapping shells                                     ... done
Starting the XC term evaluation                    ... done (   0.3 sec)
  promolecular density results
     # of electrons  =    156.001127423
     EX              =   -390.362616300
     EC              =     -6.850121835
     EX+EC           =   -397.212738135
Transforming the Hamiltonian                       ... done (   0.1 sec)
Diagonalizing the Hamiltonian                      ... done (   0.1 sec)
Back transforming the eigenvectors                 ... done (   0.1 sec)
Now organizing SCF variables                       ... done
                      ------------------
                      INITIAL GUESS DONE (   4.6 sec)
                      ------------------
-------------------
DFT GRID GENERATION
-------------------

General Integration Accuracy     IntAcc      ... 4.388
Radial Grid Type                 RadialGrid  ... OptM3 with GC (2021)
Angular Grid (max. ang.)         AngularGrid ... 4 (Lebedev-302)
Angular grid pruning method      GridPruning ... 4 (adaptive)
Weight generation scheme         WeightScheme... Becke
Basis function cutoff            BFCut       ... 1.0000e-11
Integration weight cutoff        WCut        ... 1.0000e-14
Angular grids for H and He will be reduced by one unit
Partially contracted basis set               ... off
Rotationally invariant grid construction     ... off

Total number of grid points                  ...    87864
Total number of batches                      ...     1380
Average number of points per batch           ...       63
Average number of grid points per atom       ...     6759
Time for grid setup =    0.682 sec

--------------------
COSX GRID GENERATION
--------------------

GRIDX 1
-------
General Integration Accuracy     IntAcc      ... 3.816
Radial Grid Type                 RadialGrid  ... OptM3 with GC (2021)
Angular Grid (max. ang.)         AngularGrid ... 1 (Lebedev-50)
Angular grid pruning method      GridPruning ... 4 (adaptive)
Weight generation scheme         WeightScheme... Becke
Basis function cutoff            BFCut       ... 1.0000e-11
Integration weight cutoff        WCut        ... 1.0000e-14
Angular grids for H and He will be reduced by one unit
Partially contracted basis set               ... on
Rotationally invariant grid construction     ... off

Total number of grid points                  ...    10834
Total number of batches                      ...      174
Average number of points per batch           ...       62
Average number of grid points per atom       ...      833
UseSFitting                                  ... on

GRIDX 2
-------
General Integration Accuracy     IntAcc      ... 4.020
Radial Grid Type                 RadialGrid  ... OptM3 with GC (2021)
Angular Grid (max. ang.)         AngularGrid ... 2 (Lebedev-110)
Angular grid pruning method      GridPruning ... 4 (adaptive)
Weight generation scheme         WeightScheme... Becke
Basis function cutoff            BFCut       ... 1.0000e-11
Integration weight cutoff        WCut        ... 1.0000e-14
Angular grids for H and He will be reduced by one unit
Partially contracted basis set               ... on
Rotationally invariant grid construction     ... off

Total number of grid points                  ...    30045
Total number of batches                      ...      479
Average number of points per batch           ...       62
Average number of grid points per atom       ...     2311
UseSFitting                                  ... on

GRIDX 3
-------
General Integration Accuracy     IntAcc      ... 4.338
Radial Grid Type                 RadialGrid  ... OptM3 with GC (2021)
Angular Grid (max. ang.)         AngularGrid ... 3 (Lebedev-194)
Angular grid pruning method      GridPruning ... 4 (adaptive)
Weight generation scheme         WeightScheme... Becke
Basis function cutoff            BFCut       ... 1.0000e-11
Integration weight cutoff        WCut        ... 1.0000e-14
Angular grids for H and He will be reduced by one unit
Partially contracted basis set               ... on
Rotationally invariant grid construction     ... off

Total number of grid points                  ...    63440
Total number of batches                      ...     1000
Average number of points per batch           ...       63
Average number of grid points per atom       ...     4880
UseSFitting                                  ... on

Time for X-Grid setup             =    1.700 sec

--------------
SCF ITERATIONS
--------------
ITER       Energy         Delta-E        Max-DP      RMS-DP      [F,P]     Damp
               ***  Starting incremental Fock matrix formation  ***
  0   -727.4666060784   0.000000000000 0.33679211  0.00162167  0.4033701 0.7000
  1   -727.6856436850  -0.219037606517 0.23005187  0.00114362  0.2713108 0.7000
                               ***Turning on DIIS***
  2   -727.7788956561  -0.093251971181 0.14345720  0.00073131  0.1803006 0.7000
  3   -727.8293135179  -0.050417861735 0.09874222  0.00047388  0.1213055 0.7000
  4   -727.8649337647  -0.035620246784 0.23421817  0.00110424  0.0844296 0.0000
  5   -727.9474140391  -0.082480274476 0.01605265  0.00008104  0.0046665 0.0000
  6   -727.9476213821  -0.000207342963 0.00215673  0.00003147  0.0032297 0.0000
  7   -727.9477025161  -0.000081134028 0.00266588  0.00004002  0.0008429 0.0000
               *** Restarting incremental Fock matrix formation ***
                                   *** Resetting DIIS ***
  8   -727.9477609891  -0.000058472949 0.00334915  0.00004770  0.0007163 0.0000
  9   -727.9477513580   0.000009631092 0.00129818  0.00000688  0.0015365 0.0000
 10   -727.9477633997  -0.000012041740 0.00042229  0.00000413  0.0005504 0.0000
 11   -727.9477652836  -0.000001883868 0.00024929  0.00000304  0.0000818 0.0000
 12   -727.9477653394  -0.000000055794 0.00026627  0.00000212  0.0000186 0.0000
 13   -727.9477653401  -0.000000000725 0.00014901  0.00000164  0.0000115 0.0000
 14   -727.9477653163   0.000000023786 0.00020160  0.00000207  0.0000060 0.0000
 15   -727.9477652926   0.000000023743 0.00007156  0.00000073  0.0000031 0.0000
                            ***DIIS convergence achieved***

               *****************************************************
               *                     SUCCESS                       *
               *           SCF CONVERGED AFTER  16 CYCLES          *
               *****************************************************

Old exchange energy                            =    -17.171043498 Eh
New exchange energy                            =    -17.171016864 Eh
Exchange energy change after final integration =      0.000026634 Eh
Total energy after final integration           =   -727.947738615 Eh
Final COS-X integration done in                =    11.152 sec

----------------
TOTAL SCF ENERGY
----------------

Total Energy       :         -727.94773861 Eh          -19808.46501 eV

Components:
Nuclear Repulsion  :          679.35628164 Eh           18486.22424 eV
Electronic Energy  :        -1407.30402025 Eh          -38294.68926 eV
One Electron Energy:        -2388.83967904 Eh          -65003.63239 eV
Two Electron Energy:          981.53565878 Eh           26708.94313 eV
Max COSX asymmetry :            0.00000093 Eh               0.00003 eV

Virial components:
Potential Energy   :        -1422.93043821 Eh          -38719.90571 eV
Kinetic Energy     :          694.98269959 Eh           18911.44069 eV
Virial Ratio       :            2.04743289


DFT components:
N(Alpha)           :       48.999973037838 electrons
N(Beta)            :       48.999973037838 electrons
N(Total)           :       97.999946075676 electrons
E(X)               :      -68.724881435232 Eh       
E(C)               :       -3.995285969469 Eh       
E(XC)              :      -72.720167404700 Eh       
DFET-embed. en.    :        0.000000000000 Eh       

---------------
SCF CONVERGENCE
---------------

  Last Energy change         ...    4.3595e-08  Tolerance :   1.0000e-08
  Last MAX-Density change    ...    0.0000e+00  Tolerance :   1.0000e-07
  Last RMS-Density change    ...    0.0000e+00  Tolerance :   5.0000e-09
  Last DIIS Error            ...    5.9170e-07  Tolerance :   5.0000e-07

             **** THE GBW FILE WAS UPDATED (HfCO6-2.gbw) ****
             **** DENSITY HfCO6-2.scfp WAS UPDATED ****
             **** ENERGY FILE WAS UPDATED (HfCO6-2.en.tmp) ****
             **** THE GBW FILE WAS UPDATED (HfCO6-2.gbw) ****
             **** DENSITY HfCO6-2.scfp WAS UPDATED ****
----------------
ORBITAL ENERGIES
----------------

  NO   OCC          E(Eh)            E(eV) 
   0   2.0000     -18.897052      -514.2149 
   1   2.0000     -18.897048      -514.2148 
   2   2.0000     -18.897045      -514.2147 
   3   2.0000     -18.897042      -514.2146 
   4   2.0000     -18.897031      -514.2144 
   5   2.0000     -18.897025      -514.2142 
   6   2.0000      -9.961324      -271.0614 
   7   2.0000      -9.961320      -271.0613 
   8   2.0000      -9.961319      -271.0613 
   9   2.0000      -9.961319      -271.0613 
  10   2.0000      -9.961314      -271.0611 
  11   2.0000      -9.961311      -271.0611 
  12   2.0000      -2.068770       -56.2941 
  13   2.0000      -0.916127       -24.9291 
  14   2.0000      -0.916115       -24.9288 
  15   2.0000      -0.916103       -24.9284 
  16   2.0000      -0.845117       -22.9968 
  17   2.0000      -0.844823       -22.9888 
  18   2.0000      -0.844817       -22.9886 
  19   2.0000      -0.844722       -22.9861 
  20   2.0000      -0.844717       -22.9859 
  21   2.0000      -0.844709       -22.9857 
  22   2.0000      -0.276807        -7.5323 
  23   2.0000      -0.268459        -7.3051 
  24   2.0000      -0.268457        -7.3051 
  25   2.0000      -0.267771        -7.2864 
  26   2.0000      -0.267766        -7.2863 
  27   2.0000      -0.267752        -7.2859 
  28   2.0000      -0.170582        -4.6418 
  29   2.0000      -0.170571        -4.6415 
  30   2.0000      -0.170565        -4.6413 
  31   2.0000      -0.167221        -4.5503 
  32   2.0000      -0.167206        -4.5499 
  33   2.0000      -0.167191        -4.5495 
  34   2.0000      -0.164794        -4.4843 
  35   2.0000      -0.164779        -4.4839 
  36   2.0000      -0.164766        -4.4835 
  37   2.0000      -0.162143        -4.4121 
  38   2.0000      -0.162142        -4.4121 
  39   2.0000      -0.162140        -4.4121 
  40   2.0000      -0.158502        -4.3131 
  41   2.0000      -0.107292        -2.9196 
  42   2.0000      -0.107291        -2.9195 
  43   2.0000      -0.082498        -2.2449 
  44   2.0000      -0.082425        -2.2429 
  45   2.0000      -0.082346        -2.2408 
  46   2.0000       0.148814         4.0494 
  47   2.0000       0.148882         4.0513 
  48   2.0000       0.148895         4.0517 
  49   0.0000       0.213411         5.8072 
  50   0.0000       0.221813         6.0358 
  51   0.0000       0.221822         6.0361 
  52   0.0000       0.221835         6.0364 
  53   0.0000       0.231872         6.3096 
  54   0.0000       0.231873         6.3096 
  55   0.0000       0.248892         6.7727 
  56   0.0000       0.248900         6.7729 
  57   0.0000       0.248917         6.7734 
  58   0.0000       0.266595         7.2544 
  59   0.0000       0.266616         7.2550 
  60   0.0000       0.266628         7.2553 
  61   0.0000       0.267605         7.2819 
  62   0.0000       0.267632         7.2826 
  63   0.0000       0.267656         7.2833 
  64   0.0000       0.272046         7.4027 
  65   0.0000       0.272117         7.4047 
  66   0.0000       0.272189         7.4066 
  67   0.0000       0.296611         8.0712 
  68   0.0000       0.296636         8.0719 
  69   0.0000       0.296668         8.0728 
  70   0.0000       0.297999         8.1090 
  71   0.0000       0.299898         8.1606 
  72   0.0000       0.299902         8.1608 
  73   0.0000       0.299905         8.1608 
  74   0.0000       0.331281         9.0146 
  75   0.0000       0.331289         9.0148 
  76   0.0000       0.331292         9.0149 
  77   0.0000       0.345719         9.4075 
  78   0.0000       0.345728         9.4077 
  79   0.0000       0.353791         9.6271 
  80   0.0000       0.353839         9.6285 
  81   0.0000       0.353892         9.6299 
  82   0.0000       0.363147         9.8817 
  83   0.0000       0.363186         9.8828 
  84   0.0000       0.363223         9.8838 
  85   0.0000       0.407788        11.0965 
  86   0.0000       0.412771        11.2321 
  87   0.0000       0.412776        11.2322 
  88   0.0000       0.412922        11.2362 
  89   0.0000       0.415036        11.2937 
  90   0.0000       0.415059        11.2943 
  91   0.0000       0.415061        11.2944 
  92   0.0000       0.456766        12.4292 
  93   0.0000       0.456815        12.4306 
  94   0.0000       0.456872        12.4321 
  95   0.0000       0.469275        12.7696 
  96   0.0000       0.469291        12.7701 
  97   0.0000       0.469315        12.7707 
  98   0.0000       0.476011        12.9529 
  99   0.0000       0.476014        12.9530 
 100   0.0000       0.487433        13.2637 
 101   0.0000       0.488455        13.2915 
 102   0.0000       0.488505        13.2929 
 103   0.0000       0.488573        13.2947 
 104   0.0000       0.506654        13.7868 
 105   0.0000       0.506868        13.7926 
 106   0.0000       0.507042        13.7973 
 107   0.0000       0.516577        14.0568 
 108   0.0000       0.516581        14.0569 
 109   0.0000       0.516626        14.0581 
 110   0.0000       0.524098        14.2614 
 111   0.0000       0.524117        14.2620 
 112   0.0000       0.548715        14.9313 
 113   0.0000       0.561031        15.2664 
 114   0.0000       0.561067        15.2674 
 115   0.0000       0.574448        15.6315 
 116   0.0000       0.574466        15.6320 
 117   0.0000       0.574470        15.6321 
 118   0.0000       0.579727        15.7752 
 119   0.0000       0.579844        15.7783 
 120   0.0000       0.579955        15.7814 
 121   0.0000       0.585177        15.9235 
 122   0.0000       0.585278        15.9262 
 123   0.0000       0.585368        15.9287 
 124   0.0000       0.586779        15.9671 
 125   0.0000       0.586808        15.9678 
 126   0.0000       0.596163        16.2224 
 127   0.0000       0.620467        16.8838 
 128   0.0000       0.663904        18.0657 
 129   0.0000       0.664206        18.0740 
 130   0.0000       0.664588        18.0844 
 131   0.0000       0.675585        18.3836 
 132   0.0000       0.675596        18.3839 
 133   0.0000       0.675603        18.3841 
 134   0.0000       0.694821        18.9070 
 135   0.0000       0.694953        18.9106 
 136   0.0000       0.695108        18.9149 
 137   0.0000       0.733197        19.9513 
 138   0.0000       0.733201        19.9514 
 139   0.0000       0.733216        19.9518 
 140   0.0000       0.735455        20.0128 
 141   0.0000       0.753971        20.5166 
 142   0.0000       0.768942        20.9240 
 143   0.0000       0.769169        20.9302 
 144   0.0000       0.769381        20.9359 
 145   0.0000       0.788697        21.4615 
 146   0.0000       0.788756        21.4631 
 147   0.0000       0.793450        21.5909 
 148   0.0000       0.793618        21.5954 
 149   0.0000       0.793977        21.6052 
 150   0.0000       0.798010        21.7149 
 151   0.0000       0.798012        21.7150 
 152   0.0000       0.798028        21.7154 
 153   0.0000       0.799506        21.7557 
 154   0.0000       0.799548        21.7568 
 155   0.0000       0.799619        21.7587 
 156   0.0000       0.800909        21.7938 
 157   0.0000       0.800925        21.7943 
 158   0.0000       0.803668        21.8689 
 159   0.0000       0.803783        21.8721 
 160   0.0000       0.803924        21.8759 
 161   0.0000       0.819581        22.3019 
 162   0.0000       0.840618        22.8744 
 163   0.0000       0.840661        22.8755 
 164   0.0000       0.840699        22.8766 
 165   0.0000       0.890160        24.2225 
 166   0.0000       0.890207        24.2238 
 167   0.0000       0.901798        24.5392 
 168   0.0000       0.901893        24.5417 
 169   0.0000       0.913838        24.8668 
 170   0.0000       0.913984        24.8708 
 171   0.0000       0.914145        24.8752 
 172   0.0000       0.921989        25.0886 
 173   0.0000       0.922147        25.0929 
 174   0.0000       0.922292        25.0968 
 175   0.0000       0.945197        25.7201 
 176   0.0000       0.945221        25.7208 
 177   0.0000       0.949781        25.8449 
 178   0.0000       0.949863        25.8471 
 179   0.0000       0.949909        25.8483 
 180   0.0000       0.953768        25.9533 
 181   0.0000       0.954140        25.9635 
 182   0.0000       0.954531        25.9741 
 183   0.0000       0.980659        26.6851 
 184   0.0000       1.000800        27.2332 
 185   0.0000       1.000971        27.2378 
 186   0.0000       1.001003        27.2387 
 187   0.0000       1.033407        28.1204 
 188   0.0000       1.033470        28.1222 
 189   0.0000       1.035382        28.1742 
 190   0.0000       1.040339        28.3091 
 191   0.0000       1.040406        28.3109 
 192   0.0000       1.040435        28.3117 
 193   0.0000       1.097949        29.8767 
 194   0.0000       1.097970        29.8773 
 195   0.0000       1.098454        29.8905 
 196   0.0000       1.114264        30.3207 
 197   0.0000       1.115326        30.3496 
 198   0.0000       1.115419        30.3521 
 199   0.0000       1.115461        30.3532 
 200   0.0000       1.139298        31.0019 
 201   0.0000       1.139454        31.0061 
 202   0.0000       1.139630        31.0109 
 203   0.0000       1.142036        31.0764 
 204   0.0000       1.144469        31.1426 
 205   0.0000       1.144491        31.1432 
 206   0.0000       1.164640        31.6915 
 207   0.0000       1.164908        31.6988 
 208   0.0000       1.165159        31.7056 
 209   0.0000       1.194750        32.5108 
 210   0.0000       1.207868        32.8677 
 211   0.0000       1.207974        32.8707 
 212   0.0000       1.208095        32.8739 
 213   0.0000       1.209921        32.9236 
 214   0.0000       1.210065        32.9275 
 215   0.0000       1.210186        32.9308 
 216   0.0000       1.220090        33.2003 
 217   0.0000       1.220158        33.2022 
 218   0.0000       1.220172        33.2026 
 219   0.0000       1.233762        33.5724 
 220   0.0000       1.233994        33.5787 
 221   0.0000       1.234209        33.5845 
 222   0.0000       1.264420        34.4066 
 223   0.0000       1.264509        34.4090 
 224   0.0000       1.264753        34.4157 
 225   0.0000       1.280225        34.8367 
 226   0.0000       1.280492        34.8440 
 227   0.0000       1.335032        36.3281 
 228   0.0000       1.362869        37.0855 
 229   0.0000       1.362903        37.0865 
 230   0.0000       1.362920        37.0869 
 231   0.0000       1.368116        37.2283 
 232   0.0000       1.368675        37.2435 
 233   0.0000       1.369135        37.2561 
 234   0.0000       1.387472        37.7550 
 235   0.0000       1.388106        37.7723 
 236   0.0000       1.388673        37.7877 
 237   0.0000       1.464780        39.8587 
 238   0.0000       1.464817        39.8597 
 239   0.0000       1.464845        39.8605 
 240   0.0000       1.518098        41.3096 
 241   0.0000       1.524132        41.4737 
 242   0.0000       1.524290        41.4780 
 243   0.0000       1.524476        41.4831 
 244   0.0000       1.565322        42.5946 
 245   0.0000       1.565368        42.5958 
 246   0.0000       1.637754        44.5656 
 247   0.0000       1.637977        44.5716 
 248   0.0000       1.682430        45.7812 
 249   0.0000       1.682534        45.7841 
 250   0.0000       1.682653        45.7873 
 251   0.0000       1.687121        45.9089 
 252   0.0000       1.687175        45.9104 
 253   0.0000       1.687224        45.9117 
 254   0.0000       1.752541        47.6891 
 255   0.0000       1.752728        47.6942 
 256   0.0000       1.752886        47.6984 
 257   0.0000       1.805850        49.1397 
 258   0.0000       1.805857        49.1399 
 259   0.0000       2.004138        54.5354 
 260   0.0000       2.004186        54.5367 
 261   0.0000       2.004215        54.5375 
 262   0.0000       2.011066        54.7239 
 263   0.0000       2.011358        54.7318 
 264   0.0000       2.011666        54.7402 
 265   0.0000       2.023957        55.0747 
 266   0.0000       2.024069        55.0777 
 267   0.0000       2.024215        55.0817 
 268   0.0000       2.054502        55.9058 
 269   0.0000       2.054643        55.9097 
 270   0.0000       2.054854        55.9154 
 271   0.0000       2.055166        55.9239 
 272   0.0000       2.060071        56.0574 
 273   0.0000       2.062699        56.1289 
 274   0.0000       2.062706        56.1291 
 275   0.0000       2.079919        56.5975 
 276   0.0000       2.079985        56.5993 
 277   0.0000       2.134624        58.0861 
 278   0.0000       2.138375        58.1881 
 279   0.0000       2.138916        58.2029 
 280   0.0000       2.139475        58.2181 
 281   0.0000       2.148526        58.4644 
 282   0.0000       2.148748        58.4704 
 283   0.0000       2.149024        58.4779 
 284   0.0000       2.157822        58.7173 
 285   0.0000       2.162375        58.8412 
 286   0.0000       2.162527        58.8453 
 287   0.0000       2.162665        58.8491 
 288   0.0000       2.215413        60.2844 
 289   0.0000       2.215497        60.2867 
 290   0.0000       2.242534        61.0225 
 291   0.0000       2.243278        61.0427 
 292   0.0000       2.244244        61.0690 
 293   0.0000       2.302641        62.6580 
 294   0.0000       2.302890        62.6648 
 295   0.0000       2.386129        64.9299 
 296   0.0000       2.386139        64.9301 
 297   0.0000       2.386173        64.9311 
 298   0.0000       2.434622        66.2494 
 299   0.0000       2.459584        66.9287 
 300   0.0000       2.459609        66.9294 
 301   0.0000       2.459622        66.9297 
 302   0.0000       2.491850        67.8067 
 303   0.0000       2.492077        67.8129 
 304   0.0000       2.492323        67.8195 
 305   0.0000       2.499746        68.0215 
 306   0.0000       2.499894        68.0256 
 307   0.0000       2.500024        68.0291 
 308   0.0000       2.577763        70.1445 
 309   0.0000       2.577788        70.1452 
 310   0.0000       2.658139        72.3316 
 311   0.0000       2.697136        73.3928 
 312   0.0000       2.697273        73.3965 
 313   0.0000       2.697441        73.4011 
 314   0.0000       2.717790        73.9548 
 315   0.0000       2.717850        73.9564 
 316   0.0000       2.790495        75.9332 
 317   0.0000       2.835249        77.1510 
 318   0.0000       2.835365        77.1542 
 319   0.0000       2.835465        77.1569 
 320   0.0000       2.961356        80.5826 
 321   0.0000       2.961383        80.5833 
 322   0.0000       2.961394        80.5836 
 323   0.0000       2.992299        81.4246 
 324   0.0000       2.992480        81.4295 
 325   0.0000       2.992555        81.4316 
 326   0.0000       2.996084        81.5276 
 327   0.0000       2.996214        81.5311 
 328   0.0000       2.996281        81.5330 
 329   0.0000       3.047001        82.9131 
 330   0.0000       3.047054        82.9146 
 331   0.0000       3.047161        82.9175 
 332   0.0000       3.112975        84.7084 
 333   0.0000       3.113026        84.7097 
 334   0.0000       3.113160        84.7134 
 335   0.0000       3.134870        85.3041 
 336   0.0000       3.134903        85.3051 
 337   0.0000       3.165948        86.1498 
 338   0.0000       3.203438        87.1700 
 339   0.0000       3.203441        87.1701 
 340   0.0000       3.203472        87.1709 
 341   0.0000       3.206701        87.2588 
 342   0.0000       3.206740        87.2598 
 343   0.0000       3.206755        87.2602 
 344   0.0000       3.232855        87.9705 
 345   0.0000       3.267961        88.9257 
 346   0.0000       3.268222        88.9328 
 347   0.0000       3.268418        88.9382 
 348   0.0000       3.277511        89.1856 
 349   0.0000       3.277748        89.1921 
 350   0.0000       3.278102        89.2017 
 351   0.0000       3.285520        89.4035 
 352   0.0000       3.285718        89.4089 
 353   0.0000       3.285911        89.4142 
 354   0.0000       3.356949        91.3472 
 355   0.0000       3.356960        91.3475 
 356   0.0000       3.374680        91.8297 
 357   0.0000       3.385457        92.1230 
 358   0.0000       3.385484        92.1237 
 359   0.0000       3.399619        92.5083 
 360   0.0000       3.399711        92.5108 
 361   0.0000       3.399787        92.5129 
 362   0.0000       3.436307        93.5067 
 363   0.0000       3.439026        93.5807 
 364   0.0000       3.439377        93.5902 
 365   0.0000       3.439713        93.5993 
 366   0.0000       3.501087        95.2694 
 367   0.0000       3.501576        95.2827 
 368   0.0000       3.501982        95.2938 
 369   0.0000       3.508666        95.4756 
 370   0.0000       3.508822        95.4799 
 371   0.0000       3.509103        95.4876 
 372   0.0000       3.549156        96.5774 
 373   0.0000       3.549583        96.5891 
 374   0.0000       3.550066        96.6022 
 375   0.0000       3.572945        97.2248 
 376   0.0000       3.572950        97.2249 
 377   0.0000       3.572981        97.2257 
 378   0.0000       3.633026        98.8597 
 379   0.0000       3.633082        98.8612 
 380   0.0000       3.633209        98.8646 
 381   0.0000       3.696105       100.5761 
 382   0.0000       3.704141       100.7948 
 383   0.0000       3.704168       100.7955 
 384   0.0000       3.730768       101.5194 
 385   0.0000       3.730839       101.5213 
 386   0.0000       3.763445       102.4085 
 387   0.0000       3.763466       102.4091 
 388   0.0000       3.763470       102.4092 
 389   0.0000       3.891366       105.8894 
 390   0.0000       3.925451       106.8169 
 391   0.0000       3.925478       106.8177 
 392   0.0000       3.979076       108.2762 
 393   0.0000       3.979102       108.2769 
 394   0.0000       3.979134       108.2777 
 395   0.0000       4.030350       109.6714 
 396   0.0000       4.030579       109.6776 
 397   0.0000       4.030701       109.6810 
 398   0.0000       4.034630       109.7879 
 399   0.0000       4.035056       109.7994 
 400   0.0000       4.035525       109.8122 
 401   0.0000       4.047617       110.1413 
 402   0.0000       4.047781       110.1457 
 403   0.0000       4.047992       110.1515 
 404   0.0000       4.419725       120.2668 
 405   0.0000       4.518020       122.9416 
 406   0.0000       4.518022       122.9416 
 407   0.0000       4.637341       126.1885 
 408   0.0000       4.637578       126.1949 
 409   0.0000       4.637878       126.2031 
 410   0.0000       4.717499       128.3697 
 411   0.0000       4.717507       128.3699 
 412   0.0000       4.720572       128.4533 
 413   0.0000       4.811602       130.9303 
 414   0.0000       4.811748       130.9343 
 415   0.0000       4.811949       130.9398 
 416   0.0000       5.388307       146.6233 
 417   0.0000       5.388309       146.6234 
 418   0.0000       5.388331       146.6239 
 419   0.0000       5.388440       146.6269 
 420   0.0000       5.388451       146.6272 
 421   0.0000       5.388454       146.6273 
 422   0.0000       5.388776       146.6360 
 423   0.0000       5.388787       146.6363 
 424   0.0000       5.388790       146.6364 
 425   0.0000       5.389416       146.6535 
 426   0.0000       5.389418       146.6535 
 427   0.0000       5.389440       146.6541 
 428   0.0000       5.810366       158.1081 
 429   0.0000       5.810372       158.1083 
 430   0.0000       5.812637       158.1699 
 431   0.0000       5.814832       158.2296 
 432   0.0000       5.814840       158.2298 
 433   0.0000       5.814868       158.2306 
 434   0.0000       5.816957       158.2874 
 435   0.0000       5.816969       158.2878 
 436   0.0000       5.817020       158.2892 
 437   0.0000       5.822077       158.4268 
 438   0.0000       5.837787       158.8542 
 439   0.0000       5.837802       158.8547 
 440   0.0000       6.524739       177.5472 
 441   0.0000       6.524742       177.5473 
 442   0.0000       6.524747       177.5474 
 443   0.0000       6.585955       179.2129 
 444   0.0000       6.586004       179.2143 
 445   0.0000       6.586035       179.2151 
 446   0.0000       6.591531       179.3647 
 447   0.0000       6.591630       179.3674 
 448   0.0000       6.591715       179.3697 
 449   0.0000       6.602130       179.6531 
 450   0.0000       6.602298       179.6577 
 451   0.0000       6.602445       179.6617 
 452   0.0000       6.691863       182.0948 
 453   0.0000       6.706269       182.4869 
 454   0.0000       6.706270       182.4869 
 455   0.0000       6.706304       182.4878 
 456   0.0000       6.717736       182.7989 
 457   0.0000       6.717747       182.7992 
 458   0.0000       6.720597       182.8767 
 459   0.0000       6.720884       182.8846 
 460   0.0000       6.721144       182.8916 
 461   0.0000       6.735507       183.2825 
 462   0.0000       6.735514       183.2827 
 463   0.0000       6.771092       184.2508 
 464   0.0000       6.899048       187.7326 
 465   0.0000       6.913314       188.1208 
 466   0.0000       6.913326       188.1212 
 467   0.0000       6.946225       189.0164 
 468   0.0000       6.946228       189.0165 
 469   0.0000       6.946277       189.0178 
 470   0.0000       7.089464       192.9141 
 471   0.0000       7.089716       192.9210 
 472   0.0000       7.089971       192.9279 
 473   0.0000       7.092001       192.9832 
 474   0.0000       7.092022       192.9837 
 475   0.0000       7.092027       192.9839 
 476   0.0000       7.135040       194.1543 
 477   0.0000       7.135042       194.1544 
 478   0.0000       7.135055       194.1547 
 479   0.0000       7.153415       194.6543 
 480   0.0000       7.153480       194.6561 
 481   0.0000       7.153537       194.6577 
 482   0.0000       7.475505       203.4188 
 483   0.0000       7.475566       203.4205 
 484   0.0000       7.475655       203.4229 
 485   0.0000       7.495218       203.9552 
 486   0.0000       7.495227       203.9555 
 487   0.0000       7.498918       204.0559 
 488   0.0000      23.073510       627.8621 
 489   0.0000      23.189124       631.0081 
 490   0.0000      23.189140       631.0086 
 491   0.0000      23.250012       632.6650 
 492   0.0000      23.251143       632.6958 
 493   0.0000      23.252203       632.7246 
 494   0.0000      44.338813      1206.5204 
 495   0.0000      44.339473      1206.5384 
 496   0.0000      44.340162      1206.5572 
 497   0.0000      44.420589      1208.7457 
 498   0.0000      44.570481      1212.8244 
 499   0.0000      44.570499      1212.8249 
 500   0.0000      46.947433      1277.5046 
 501   0.0000      46.956837      1277.7605 
 502   0.0000      46.966197      1278.0152 
 503   0.0000      80.173357      2181.6280 
 504   0.0000     742.131381     20194.4215 

                    ********************************
                    * MULLIKEN POPULATION ANALYSIS *
                    ********************************

-----------------------
MULLIKEN ATOMIC CHARGES
-----------------------
   0 Hf:    0.934109
   1 C :   -0.063313
   2 C :   -0.061368
   3 C :   -0.063258
   4 C :   -0.061461
   5 O :   -0.426152
   6 O :   -0.426809
   7 O :   -0.426009
   8 O :   -0.426640
   9 C :   -0.062928
  10 C :   -0.062933
  11 O :   -0.426605
  12 O :   -0.426633
Sum of atomic charges:   -2.0000000

--------------------------------
MULLIKEN REDUCED ORBITAL CHARGES
--------------------------------
  0 Hfs       :     2.473435  s :     2.473435
      pz      :     2.051433  p :     6.153476
      px      :     2.051500
      py      :     2.050543
      dz2     :     0.157475  d :     2.370606
      dxz     :     0.676219
      dyz     :     0.693586
      dx2y2   :     0.151584
      dxy     :     0.691741
      f0      :     0.020729  f :     0.068375
      f+1     :     0.009239
      f-1     :     0.008874
      f+2     :     0.002021
      f-2     :     0.000054
      f+3     :     0.013591
      f-3     :     0.013867
  1 C s       :     3.636207  s :     3.636207
      pz      :     0.689771  p :     2.273039
      px      :     0.894975
      py      :     0.688293
      dz2     :     0.006642  d :     0.138621
      dxz     :     0.054495
      dyz     :     0.012096
      dx2y2   :     0.009610
      dxy     :     0.055778
      f0      :     0.001938  f :     0.015445
      f+1     :     0.001916
      f-1     :     0.000308
      f+2     :     0.003290
      f-2     :     0.000155
      f+3     :     0.002885
      f-3     :     0.004954
  2 C s       :     3.634222  s :     3.634222
      pz      :     0.688238  p :     2.272584
      px      :     0.688255
      py      :     0.896092
      dz2     :     0.005713  d :     0.139113
      dxz     :     0.011536
      dyz     :     0.056347
      dx2y2   :     0.009362
      dxy     :     0.056155
      f0      :     0.002031  f :     0.015449
      f+1     :     0.000334
      f-1     :     0.001746
      f+2     :     0.003340
      f-2     :     0.000049
      f+3     :     0.005033
      f-3     :     0.002915
  3 C s       :     3.636085  s :     3.636085
      pz      :     0.689758  p :     2.273096
      px      :     0.895063
      py      :     0.688274
      dz2     :     0.006639  d :     0.138630
      dxz     :     0.054502
      dyz     :     0.012099
      dx2y2   :     0.009616
      dxy     :     0.055773
      f0      :     0.001938  f :     0.015447
      f+1     :     0.001916
      f-1     :     0.000308
      f+2     :     0.003290
      f-2     :     0.000155
      f+3     :     0.002885
      f-3     :     0.004954
  4 C s       :     3.634198  s :     3.634198
      pz      :     0.688251  p :     2.272673
      px      :     0.688236
      py      :     0.896186
      dz2     :     0.005723  d :     0.139140
      dxz     :     0.011536
      dyz     :     0.056360
      dx2y2   :     0.009372
      dxy     :     0.056148
      f0      :     0.002031  f :     0.015449
      f+1     :     0.000334
      f-1     :     0.001746
      f+2     :     0.003340
      f-2     :     0.000049
      f+3     :     0.005033
      f-3     :     0.002915
  5 O s       :     3.949946  s :     3.949946
      pz      :     1.550846  p :     4.410636
      px      :     1.550599
      py      :     1.309191
      dz2     :     0.002874  d :     0.063879
      dxz     :    -0.000227
      dyz     :     0.026181
      dx2y2   :     0.008904
      dxy     :     0.026146
      f0      :     0.000264  f :     0.001692
      f+1     :     0.000044
      f-1     :     0.000106
      f+2     :     0.000439
      f-2     :     0.000002
      f+3     :     0.000657
      f-3     :     0.000180
  6 O s       :     3.950480  s :     3.950480
      pz      :     1.548895  p :     4.410713
      px      :     1.311199
      py      :     1.550619
      dz2     :     0.003369  d :     0.063924
      dxz     :     0.025667
      dyz     :    -0.000014
      dx2y2   :     0.008961
      dxy     :     0.025941
      f0      :     0.000247  f :     0.001692
      f+1     :     0.000138
      f-1     :     0.000041
      f+2     :     0.000423
      f-2     :     0.000016
      f+3     :     0.000181
      f-3     :     0.000646
  7 O s       :     3.949842  s :     3.949842
      pz      :     1.550843  p :     4.410596
      px      :     1.550591
      py      :     1.309162
      dz2     :     0.002874  d :     0.063879
      dxz     :    -0.000227
      dyz     :     0.026177
      dx2y2   :     0.008904
      dxy     :     0.026151
      f0      :     0.000264  f :     0.001692
      f+1     :     0.000044
      f-1     :     0.000106
      f+2     :     0.000439
      f-2     :     0.000002
      f+3     :     0.000657
      f-3     :     0.000180
  8 O s       :     3.950404  s :     3.950404
      pz      :     1.548858  p :     4.410609
      px      :     1.311175
      py      :     1.550576
      dz2     :     0.003370  d :     0.063936
      dxz     :     0.025668
      dyz     :    -0.000014
      dx2y2   :     0.008968
      dxy     :     0.025943
      f0      :     0.000247  f :     0.001692
      f+1     :     0.000138
      f-1     :     0.000041
      f+2     :     0.000423
      f-2     :     0.000016
      f+3     :     0.000181
      f-3     :     0.000646
  9 C s       :     3.635693  s :     3.635693
      pz      :     0.895270  p :     2.273051
      px      :     0.689600
      py      :     0.688181
      dz2     :     0.011932  d :     0.138737
      dxz     :     0.054627
      dyz     :     0.055964
      dx2y2   :     0.004125
      dxy     :     0.012090
      f0      :     0.004659  f :     0.015447
      f+1     :     0.005229
      f-1     :     0.005269
      f+2     :     0.000135
      f-2     :     0.000150
      f+3     :     0.000002
      f-3     :     0.000003
 10 C s       :     3.635689  s :     3.635689
      pz      :     0.895259  p :     2.273068
      px      :     0.689612
      py      :     0.688197
      dz2     :     0.011933  d :     0.138730
      dxz     :     0.054627
      dyz     :     0.055960
      dx2y2   :     0.004123
      dxy     :     0.012088
      f0      :     0.004659  f :     0.015446
      f+1     :     0.005228
      f-1     :     0.005269
      f+2     :     0.000135
      f-2     :     0.000149
      f+3     :     0.000002
      f-3     :     0.000003
 11 O s       :     3.950360  s :     3.950360
      pz      :     1.311096  p :     4.410635
      px      :     1.548728
      py      :     1.550812
      dz2     :     0.012168  d :     0.063918
      dxz     :     0.025679
      dyz     :     0.025983
      dx2y2   :     0.000117
      dxy     :    -0.000029
      f0      :     0.000303  f :     0.001692
      f+1     :     0.000669
      f-1     :     0.000690
      f+2     :     0.000015
      f-2     :     0.000015
      f+3     :     0.000000
      f-3     :     0.000000
 12 O s       :     3.950352  s :     3.950352
      pz      :     1.311095  p :     4.410678
      px      :     1.548752
      py      :     1.550831
      dz2     :     0.012164  d :     0.063911
      dxz     :     0.025678
      dyz     :     0.025981
      dx2y2   :     0.000117
      dxy     :    -0.000029
      f0      :     0.000303  f :     0.001692
      f+1     :     0.000669
      f-1     :     0.000690
      f+2     :     0.000015
      f-2     :     0.000015
      f+3     :     0.000000
      f-3     :     0.000000


                     *******************************
                     * LOEWDIN POPULATION ANALYSIS *
                     *******************************

----------------------
LOEWDIN ATOMIC CHARGES
----------------------
   0 Hf:    0.277242
   1 C :   -0.320565
   2 C :   -0.320605
   3 C :   -0.320588
   4 C :   -0.320612
   5 O :   -0.058950
   6 O :   -0.059008
   7 O :   -0.058932
   8 O :   -0.058902
   9 C :   -0.320591
  10 C :   -0.320579
  11 O :   -0.058926
  12 O :   -0.058983

-------------------------------
LOEWDIN REDUCED ORBITAL CHARGES
-------------------------------
  0 Hfs       :     1.914286  s :     1.914286
      pz      :     2.146243  p :     6.438795
      px      :     2.146287
      py      :     2.146265
      dz2     :     0.617779  d :     3.183064
      dxz     :     0.648570
      dyz     :     0.649749
      dx2y2   :     0.617373
      dxy     :     0.649593
      f0      :     0.056480  f :     0.186614
      f+1     :     0.025235
      f-1     :     0.024244
      f+2     :     0.005614
      f-2     :     0.000151
      f+3     :     0.037068
      f-3     :     0.037823
  1 C s       :     3.047318  s :     3.047318
      pz      :     0.649771  p :     2.403921
      px      :     1.107711
      py      :     0.646439
      dz2     :     0.078167  d :     0.778201
      dxz     :     0.241487
      dyz     :     0.020803
      dx2y2   :     0.196527
      dxy     :     0.241218
      f0      :     0.011561  f :     0.091125
      f+1     :     0.011056
      f-1     :     0.001836
      f+2     :     0.019655
      f-2     :     0.000782
      f+3     :     0.016629
      f-3     :     0.029606
  2 C s       :     3.047320  s :     3.047320
      pz      :     0.646040  p :     2.403907
      px      :     0.646430
      py      :     1.111438
      dz2     :     0.075683  d :     0.778247
      dxz     :     0.018883
      dyz     :     0.242979
      dx2y2   :     0.197680
      dxy     :     0.243021
      f0      :     0.012130  f :     0.091131
      f+1     :     0.001992
      f-1     :     0.010008
      f+2     :     0.019975
      f-2     :     0.000150
      f+3     :     0.030081
      f-3     :     0.016796
  3 C s       :     3.047299  s :     3.047299
      pz      :     0.649760  p :     2.403951
      px      :     1.107748
      py      :     0.646443
      dz2     :     0.078166  d :     0.778198
      dxz     :     0.241484
      dyz     :     0.020807
      dx2y2   :     0.196530
      dxy     :     0.241212
      f0      :     0.011564  f :     0.091140
      f+1     :     0.011057
      f-1     :     0.001836
      f+2     :     0.019658
      f-2     :     0.000784
      f+3     :     0.016632
      f-3     :     0.029610
  4 C s       :     3.047314  s :     3.047314
      pz      :     0.646028  p :     2.403913
      px      :     0.646437
      py      :     1.111447
      dz2     :     0.075683  d :     0.778251
      dxz     :     0.018883
      dyz     :     0.242990
      dx2y2   :     0.197681
      dxy     :     0.243015
      f0      :     0.012131  f :     0.091134
      f+1     :     0.001992
      f-1     :     0.010008
      f+2     :     0.019975
      f-2     :     0.000149
      f+3     :     0.030082
      f-3     :     0.016795
  5 O s       :     3.405110  s :     3.405110
      pz      :     1.389626  p :     4.414551
      px      :     1.389816
      py      :     1.635110
      dz2     :     0.029346  d :     0.231935
      dxz     :     0.000164
      dyz     :     0.057197
      dx2y2   :     0.087878
      dxy     :     0.057351
      f0      :     0.000675  f :     0.007354
      f+1     :     0.000114
      f-1     :     0.001406
      f+2     :     0.001122
      f-2     :     0.000005
      f+3     :     0.001693
      f-3     :     0.002340
  6 O s       :     3.405128  s :     3.405128
      pz      :     1.391591  p :     4.414572
      px      :     1.633137
      py      :     1.389844
      dz2     :     0.029319  d :     0.231955
      dxz     :     0.058181
      dyz     :     0.000624
      dx2y2   :     0.086934
      dxy     :     0.056898
      f0      :     0.000683  f :     0.007353
      f+1     :     0.001392
      f-1     :     0.000105
      f+2     :     0.001171
      f-2     :     0.000040
      f+3     :     0.002297
      f-3     :     0.001666
  7 O s       :     3.405102  s :     3.405102
      pz      :     1.389600  p :     4.414540
      px      :     1.389823
      py      :     1.635116
      dz2     :     0.029347  d :     0.231935
      dxz     :     0.000163
      dyz     :     0.057193
      dx2y2   :     0.087877
      dxy     :     0.057355
      f0      :     0.000675  f :     0.007355
      f+1     :     0.000114
      f-1     :     0.001406
      f+2     :     0.001122
      f-2     :     0.000005
      f+3     :     0.001693
      f-3     :     0.002340
  8 O s       :     3.405086  s :     3.405086
      pz      :     1.391537  p :     4.414506
      px      :     1.633168
      py      :     1.389802
      dz2     :     0.029319  d :     0.231954
      dxz     :     0.058178
      dyz     :     0.000625
      dx2y2   :     0.086931
      dxy     :     0.056901
      f0      :     0.000683  f :     0.007356
      f+1     :     0.001392
      f-1     :     0.000105
      f+2     :     0.001171
      f-2     :     0.000041
      f+3     :     0.002298
      f-3     :     0.001666
  9 C s       :     3.047305  s :     3.047305
      pz      :     1.107912  p :     2.403940
      px      :     0.650012
      py      :     0.646016
      dz2     :     0.258029  d :     0.778209
      dxz     :     0.241639
      dyz     :     0.241281
      dx2y2   :     0.016565
      dxy     :     0.020695
      f0      :     0.026953  f :     0.091137
      f+1     :     0.031227
      f-1     :     0.031496
      f+2     :     0.000692
      f-2     :     0.000754
      f+3     :     0.000006
      f-3     :     0.000009
 10 C s       :     3.047314  s :     3.047314
      pz      :     1.107892  p :     2.403925
      px      :     0.650010
      py      :     0.646022
      dz2     :     0.258031  d :     0.778212
      dxz     :     0.241641
      dyz     :     0.241285
      dx2y2   :     0.016564
      dxy     :     0.020693
      f0      :     0.026952  f :     0.091128
      f+1     :     0.031225
      f-1     :     0.031493
      f+2     :     0.000691
      f-2     :     0.000753
      f+3     :     0.000006
      f-3     :     0.000009
 11 O s       :     3.405096  s :     3.405096
      pz      :     1.633254  p :     4.414523
      px      :     1.391679
      py      :     1.389590
      dz2     :     0.115780  d :     0.231951
      dxz     :     0.058300
      dyz     :     0.056758
      dx2y2   :     0.000512
      dxy     :     0.000601
      f0      :     0.003655  f :     0.007356
      f+1     :     0.001861
      f-1     :     0.001762
      f+2     :     0.000038
      f-2     :     0.000039
      f+3     :     0.000000
      f-3     :     0.000000
 12 O s       :     3.405118  s :     3.405118
      pz      :     1.633238  p :     4.414559
      px      :     1.391703
      py      :     1.389618
      dz2     :     0.115782  d :     0.231952
      dxz     :     0.058298
      dyz     :     0.056759
      dx2y2   :     0.000512
      dxy     :     0.000600
      f0      :     0.003654  f :     0.007354
      f+1     :     0.001861
      f-1     :     0.001762
      f+2     :     0.000038
      f-2     :     0.000039
      f+3     :     0.000000
      f-3     :     0.000000


                      *****************************
                      * MAYER POPULATION ANALYSIS *
                      *****************************

  NA   - Mulliken gross atomic population
  ZA   - Total nuclear charge
  QA   - Mulliken gross atomic charge
  VA   - Mayer's total valence
  BVA  - Mayer's bonded valence
  FA   - Mayer's free valence

  ATOM       NA         ZA         QA         VA         BVA        FA
  0 Hf    11.0659    12.0000     0.9341     4.2111     4.2111    -0.0000
  1 C      6.0633     6.0000    -0.0633     3.0988     3.0988    -0.0000
  2 C      6.0614     6.0000    -0.0614     3.1043     3.1043    -0.0000
  3 C      6.0633     6.0000    -0.0633     3.0989     3.0989    -0.0000
  4 C      6.0615     6.0000    -0.0615     3.1045     3.1045    -0.0000
  5 O      8.4262     8.0000    -0.4262     2.1206     2.1206    -0.0000
  6 O      8.4268     8.0000    -0.4268     2.1206     2.1206    -0.0000
  7 O      8.4260     8.0000    -0.4260     2.1209     2.1209    -0.0000
  8 O      8.4266     8.0000    -0.4266     2.1208     2.1208    -0.0000
  9 C      6.0629     6.0000    -0.0629     3.0999     3.0999    -0.0000
 10 C      6.0629     6.0000    -0.0629     3.1000     3.1000    -0.0000
 11 O      8.4266     8.0000    -0.4266     2.1206     2.1206    -0.0000
 12 O      8.4266     8.0000    -0.4266     2.1206     2.1206    -0.0000

  Mayer bond orders larger than 0.100000
B(  0-Hf,  1-C ) :   0.6759 B(  0-Hf,  2-C ) :   0.6786 B(  0-Hf,  3-C ) :   0.6758 
B(  0-Hf,  4-C ) :   0.6787 B(  0-Hf,  9-C ) :   0.6764 B(  0-Hf, 10-C ) :   0.6766 
B(  1-C ,  3-C ) :   0.1198 B(  1-C ,  6-O ) :   1.9309 B(  2-C ,  4-C ) :   0.1202 
B(  2-C ,  5-O ) :   1.9308 B(  3-C ,  8-O ) :   1.9309 B(  4-C ,  7-O ) :   1.9310 
B(  9-C , 10-C ) :   0.1198 B(  9-C , 11-O ) :   1.9307 B( 10-C , 12-O ) :   1.9307 


-------
TIMINGS
-------

[...]
     13      -0.000365  -0.002045  -0.006288   0.005074   0.033397   0.237344
     14      -0.204626   0.057632   0.002759  -0.445821  -0.044497   0.015557
     15      -0.043795  -0.135747  -0.429253   0.020448  -0.213556  -0.038421
     16       0.000649   0.004354   0.013165  -0.006380  -0.014049  -0.244242
     17       0.435528  -0.122886  -0.005761  -0.219478  -0.021940   0.007108
     18       0.007790   0.033491  -0.025851  -0.003377   0.006654   0.014605
     19      -0.083784  -0.125699  -0.426119  -0.040371   0.210586   0.030781
     20       0.114010   0.411783  -0.142572   0.009562  -0.051800   0.156822
     21       0.043785   0.135840   0.429134  -0.020455   0.213568   0.038466
     22      -0.000714  -0.004351  -0.013249   0.006201   0.014431   0.245047
     23      -0.435502   0.122571   0.005865   0.219489   0.021945  -0.007107
     24      -0.007777  -0.033565   0.026028   0.003454  -0.006973  -0.014136
     25       0.083977   0.125769   0.426559   0.040357  -0.210550  -0.030711
     26      -0.114166  -0.412184   0.142715  -0.009551   0.051833  -0.156850
     27      -0.059834  -0.191661   0.067315  -0.006346   0.105791  -0.340993
     28      -0.200242   0.069057   0.018959   0.441192   0.080827   0.001176
     29       0.004638   0.017865  -0.006093  -0.006800  -0.022029  -0.208717
     30       0.059836   0.191757  -0.067392   0.006341  -0.105743   0.340892
     31       0.200318  -0.069086  -0.018903  -0.441158  -0.080875  -0.001342
     32      -0.004597  -0.017737   0.006049   0.006900   0.022064   0.208799
     33      -0.127300  -0.407656   0.143200   0.001855  -0.053874   0.134204
     34      -0.425956   0.146905   0.040452  -0.217112  -0.039682   0.000908
     35       0.009960   0.038108  -0.013009  -0.010608  -0.008338  -0.263335
     36       0.127311   0.407893  -0.143381  -0.001821   0.053861  -0.134176
     37       0.426181  -0.146950  -0.040197   0.217093   0.039704  -0.000908
     38      -0.009838  -0.037996   0.012960   0.010927   0.008437   0.263355
                 18         19         20         21         22         23    
      0      -0.000093  -0.000149  -0.007840  -0.007591  -0.148126  -0.000014
      1      -0.000079   0.000289   0.007183  -0.148207   0.007193   0.000006
      2      -0.000007   0.000048  -0.148160  -0.006808   0.008052  -0.000016
      3       0.053967   0.390115  -0.024601   0.006153   0.478419  -0.286307
      4       0.089541  -0.009591   0.004382  -0.077374  -0.012849   0.009443
      5       0.307210  -0.058188  -0.075668  -0.004491  -0.046218   0.023578
      6      -0.099521  -0.006692  -0.004956   0.012861  -0.077318  -0.009744
      7      -0.247542  -0.191184  -0.021582   0.481033  -0.005674  -0.277538
      8      -0.002942   0.002814  -0.077423  -0.002580   0.004142  -0.000417
      9      -0.053370  -0.389055  -0.024838   0.004177   0.479476   0.286395
     10      -0.089669   0.009977   0.004390  -0.077828  -0.012822  -0.009589
     11      -0.307254   0.058127  -0.075511  -0.004268  -0.046326  -0.023608
     12       0.099409   0.006452  -0.004881   0.013149  -0.077957   0.009664
     13       0.248149   0.189179  -0.021609   0.481096  -0.006965   0.277508
     14       0.002935  -0.002763  -0.076897  -0.002752   0.004212   0.000412
     15       0.037167  -0.005736   0.001879   0.016182   0.045919  -0.008414
     16      -0.263015  -0.199833  -0.022371   0.489542  -0.009591  -0.293619
     17       0.000851  -0.001832   0.046260   0.002727  -0.002520  -0.000450
     18       0.009093   0.410639  -0.013906   0.010597   0.487377  -0.302453
     19      -0.045150  -0.013495  -0.001749   0.045973  -0.015761   0.008732
     20      -0.154434  -0.026094   0.047950   0.001411  -0.042516   0.028567
     21      -0.037119   0.005747   0.001849   0.015960   0.046143   0.008399
     22       0.263601   0.197782  -0.022400   0.489624  -0.010945   0.293586
     23      -0.000838   0.001804   0.046031   0.002827  -0.002554   0.000466
     24      -0.008433  -0.409580  -0.014174   0.008593   0.488473   0.302549
     25       0.045205   0.013381  -0.001733   0.046270  -0.016019  -0.008788
     26       0.154375   0.025976   0.047918   0.001572  -0.042610  -0.028564
     27       0.287224  -0.002395   0.047234  -0.001482  -0.075708   0.024172
     28      -0.019494   0.003164   0.001458  -0.077213   0.003595  -0.000961
     29      -0.253991   0.218868   0.478683   0.023074   0.024500   0.275131
     30      -0.287327   0.002227   0.047192  -0.001641  -0.075718  -0.024123
     31       0.019360  -0.002758   0.001451  -0.077379   0.003593   0.001108
     32       0.254069  -0.219071   0.478640   0.021042   0.024507  -0.275026
     33      -0.173219   0.031741   0.042738   0.004312   0.047875   0.027360
     34       0.011003  -0.002915  -0.004023   0.046109  -0.002282  -0.001240
     35      -0.221598   0.225581   0.487730   0.023478   0.013381   0.290860
     36       0.173266  -0.031642   0.042689   0.004105   0.047881  -0.027329
     37      -0.011018   0.002769  -0.004209   0.046194  -0.002288   0.001282
     38       0.221704  -0.225816   0.487683   0.021401   0.013400  -0.290752
                 24         25         26         27         28         29    
      0       0.000000  -0.000002  -0.000031   0.000034  -0.000044  -0.000073
      1       0.000000  -0.000002  -0.000009   0.000060  -0.000058   0.000013
      2       0.000011   0.000029  -0.000002  -0.000021  -0.000027   0.000083
      3      -0.041992  -0.001655  -0.014466  -0.008559  -0.042866   0.004242
      4       0.010799  -0.072107  -0.465025   0.402578  -0.224336   0.033594
      5      -0.469437   0.005078  -0.010794  -0.226983  -0.399177   0.034520
      6       0.008718  -0.114535  -0.457716   0.032977  -0.010186  -0.461297
      7      -0.000210   0.004252   0.013730  -0.001370  -0.000300   0.014137
      8      -0.007440  -0.457743   0.114147   0.227001   0.404208   0.007168
      9       0.041980   0.001703   0.014760  -0.008410  -0.042966   0.004236
     10      -0.010798   0.072090   0.464982   0.402596  -0.224342   0.033633
     11       0.469322  -0.005052   0.010761  -0.227054  -0.399273   0.034510
     12      -0.008734   0.114542   0.457793   0.033000  -0.010181  -0.461206
     13       0.000208  -0.004243  -0.013600  -0.001323  -0.000353   0.014040
     14       0.007500   0.457700  -0.114149   0.227036   0.404251   0.007153
     15      -0.003090   0.040450   0.161575  -0.013424   0.004164   0.187917
     16       0.000143  -0.001463  -0.005144   0.000556   0.000110  -0.005862
     17       0.002619   0.161548  -0.040257  -0.092484  -0.164629  -0.002915
     18       0.015143   0.000670   0.005899   0.003265   0.017599  -0.001579
     19      -0.003768   0.025405   0.163960  -0.164009   0.091403  -0.013712
     20       0.165649  -0.001809   0.003769   0.092471   0.162599  -0.014069
     21       0.003097  -0.040452  -0.161606  -0.013431   0.004161   0.187884
     22      -0.000143   0.001473   0.005153   0.000620   0.000081  -0.005831
     23      -0.002649  -0.161532   0.040259  -0.092496  -0.164645  -0.002909
     24      -0.015138  -0.000658  -0.005807   0.003231   0.017619  -0.001606
     25       0.003768  -0.025398  -0.163945  -0.164017   0.091407  -0.013719
     26      -0.165597   0.001784  -0.003773   0.092495   0.162634  -0.014063
     27       0.469367   0.008994   0.007629  -0.024445   0.053444   0.457629
     28      -0.007555   0.465515  -0.072619  -0.402368   0.225640  -0.047569
     29      -0.044037   0.000869  -0.001005   0.000614  -0.004140  -0.042529
     30      -0.469335  -0.009030  -0.007669  -0.024425   0.053513   0.457668
     31       0.007551  -0.465488   0.072628  -0.402401   0.225631  -0.047573
     32       0.043936  -0.001157   0.001052   0.000459  -0.004057  -0.042495
     33      -0.165778  -0.003188  -0.002694   0.009940  -0.021800  -0.186373
     34       0.002680  -0.164201   0.025638   0.163942  -0.091904   0.019391
     35       0.014540  -0.000545   0.000341  -0.000300   0.001498   0.017147
     36       0.165759   0.003185   0.002725   0.009932  -0.021822  -0.186388
     37      -0.002679   0.164191  -0.025638   0.163954  -0.091904   0.019394
     38      -0.014573   0.000456  -0.000331  -0.000262   0.001478   0.017140
                 30         31         32         33         34         35    
      0      -0.000857  -0.020829  -0.066128   0.000006  -0.000103  -0.000651
      1       0.068097   0.011898  -0.004614   0.000647   0.000048   0.000001
      2      -0.012749   0.065044  -0.020264  -0.000047   0.000641  -0.000101
      3      -0.005458  -0.033558   0.034055   0.009666   0.138990   0.548388
      4      -0.460538  -0.075332   0.043710   0.002613  -0.004004  -0.016684
      5       0.087029  -0.423945   0.175052  -0.001087  -0.009783  -0.050404
      6       0.018953   0.143016   0.445462  -0.017525  -0.001685  -0.002274
      7      -0.018492  -0.006689  -0.012156  -0.566116  -0.039614   0.019617
      8       0.086752  -0.438489   0.136849  -0.001074   0.002819  -0.000418
      9      -0.005628  -0.033593   0.034071   0.009293   0.138794   0.547883
     10      -0.460534  -0.075341   0.043685   0.002621  -0.004044  -0.016853
     11       0.087054  -0.423994   0.175065  -0.001053  -0.009764  -0.050360
     12       0.018948   0.142984   0.445402  -0.017415  -0.001674  -0.002263
     13      -0.018493  -0.006639  -0.012073  -0.566078  -0.039521   0.020012
     14       0.086766  -0.438533   0.136877  -0.001103   0.002821  -0.000418
     15      -0.007550  -0.052505  -0.163162   0.012957   0.001103   0.000798
     16      -0.012515  -0.000738   0.006408   0.419546   0.029360  -0.014515
     17      -0.031819   0.160651  -0.050123   0.000730  -0.001197   0.000170
     18       0.002658   0.020005   0.005751  -0.007135  -0.102907  -0.406378
     19       0.168695   0.027385  -0.016560  -0.001042   0.003020   0.012311
     20      -0.031926   0.154583  -0.065763   0.000738   0.008106   0.037145
     21      -0.007546  -0.052494  -0.163142   0.012876   0.001095   0.000791
     22      -0.012515  -0.000756   0.006381   0.419519   0.029293  -0.014799
     23      -0.031824   0.160666  -0.050133   0.000750  -0.001197   0.000169
     24       0.002698   0.020014   0.005747  -0.006868  -0.102766  -0.406014
     25       0.168694   0.027384  -0.016560  -0.001048   0.003051   0.012439
     26      -0.031933   0.154601  -0.065769   0.000714   0.008093   0.037113
     27      -0.001918   0.177306   0.430726   0.004026  -0.051159   0.009894
     28      -0.458974  -0.081997   0.031789   0.002743   0.002423  -0.000567
     29       0.001792  -0.033203  -0.032782   0.043213  -0.546893   0.137873
     30      -0.001938   0.177342   0.430734   0.003990  -0.051110   0.009874
     31      -0.458989  -0.081980   0.031779   0.002731   0.002603  -0.000612
     32       0.001627  -0.033214  -0.032722   0.042879  -0.547000   0.137815
     33       0.001029  -0.066588  -0.157058  -0.002970   0.037708  -0.008195
     34       0.168161   0.030107  -0.011671  -0.001130  -0.001722   0.000416
     35       0.003084  -0.005652   0.019359  -0.032017   0.405317  -0.102102
     36       0.001033  -0.066596  -0.157065  -0.002945   0.037672  -0.008180
     37       0.168166   0.030107  -0.011670  -0.001120  -0.001857   0.000450
     38       0.003124  -0.005648   0.019342  -0.031779   0.405393  -0.102060
                 36         37         38    
      0      -0.000001  -0.000000  -0.000000
      1      -0.000000   0.000001   0.000000
      2       0.000000   0.000000  -0.000000
      3      -0.092926  -0.456919  -0.331651
      4       0.002810   0.013814   0.010021
      5       0.008428   0.041411   0.030061
      6       0.013714   0.004590  -0.010246
      7       0.444625   0.148505  -0.332547
      8       0.000676   0.000220  -0.000503
      9       0.093267   0.457489   0.331674
     10      -0.002857  -0.013986  -0.010131
     11      -0.008460  -0.041464  -0.030064
     12      -0.013626  -0.004577   0.010184
     13      -0.444509  -0.148986   0.332550
     14      -0.000698  -0.000228   0.000519
     15      -0.009846  -0.003284   0.007278
     16      -0.319464  -0.106691   0.236053
     17      -0.000485  -0.000162   0.000358
     18       0.066761   0.328243   0.235399
     19      -0.002013  -0.009912  -0.007110
     20      -0.006051  -0.029752  -0.021334
     21       0.009782   0.003275  -0.007233
     22       0.319378   0.107049  -0.236056
     23       0.000500   0.000167  -0.000370
     24      -0.067014  -0.328665  -0.235416
     25       0.002044   0.010035   0.007191
     26       0.006074   0.029791   0.021336
     27       0.032231  -0.028557   0.030562
     28      -0.001399   0.001245  -0.001330
     29       0.349514  -0.309670   0.331434
     30      -0.032192   0.028515  -0.030528
     31       0.001518  -0.001343   0.001437
     32      -0.349481   0.309614  -0.331430
     33      -0.023168   0.020529  -0.021703
     34       0.001006  -0.000893   0.000943
     35      -0.251129   0.222489  -0.235269
     36       0.023140  -0.020499   0.021678
     37      -0.001089   0.000965  -0.001021
     38       0.251105  -0.222447   0.235266


-----------
IR SPECTRUM
-----------

 Mode   freq       eps      Int      T**2         TX        TY        TZ
       cm**-1   L/(mol*cm) km/mol    a.u.
----------------------------------------------------------------------------
  8:      3.46   0.000000    0.00  0.000000  ( 0.000000  0.000000  0.000000)
  9:     41.00   0.000261    1.32  0.001990  ( 0.004457 -0.039366  0.020498)
 10:     41.20   0.000262    1.32  0.001984  (-0.008505  0.019374  0.039196)
 11:     41.38   0.000263    1.33  0.001981  (-0.043455 -0.007773 -0.005664)
 12:     52.13   0.000000    0.00  0.000000  ( 0.000001 -0.000011  0.000005)
 13:     52.17   0.000000    0.00  0.000000  (-0.000006 -0.000001  0.000020)
 14:     52.37   0.000000    0.00  0.000000  ( 0.000009 -0.000018 -0.000008)
 15:    338.44   0.000000    0.00  0.000000  ( 0.000002 -0.000003  0.000005)
 16:    338.65   0.000000    0.00  0.000000  (-0.000006  0.000008  0.000003)
 17:    338.85   0.000000    0.00  0.000000  ( 0.000021  0.000031 -0.000000)
 18:    338.91   0.000000    0.00  0.000000  ( 0.000027  0.000025  0.000002)
 19:    339.10   0.000000    0.00  0.000000  ( 0.000044 -0.000083 -0.000014)
 20:    340.70   0.001567    7.92  0.001435  ( 0.002037 -0.001828  0.037786)
 21:    340.72   0.001570    7.94  0.001438  ( 0.001916  0.037837  0.001741)
 22:    341.04   0.001562    7.89  0.001429  ( 0.037712 -0.001792 -0.002004)
 23:    346.53   0.000000    0.00  0.000000  ( 0.000004 -0.000002  0.000005)
 24:    402.86   0.000000    0.00  0.000000  ( 0.000001 -0.000000 -0.000004)
 25:    403.06   0.000000    0.00  0.000000  ( 0.000000 -0.000000 -0.000003)
 26:    403.14   0.000000    0.00  0.000000  ( 0.000005  0.000005 -0.000000)
 27:    453.79   0.000000    0.00  0.000000  ( 0.000022 -0.000090  0.000051)
 28:    453.86   0.000000    0.00  0.000000  ( 0.000048  0.000073  0.000073)
 29:    453.88   0.000000    0.00  0.000000  ( 0.000025 -0.000012 -0.000086)
 30:    509.45   0.004515   22.81  0.002765  ( 0.000631 -0.051688  0.009663)
 31:    509.55   0.004519   22.84  0.002768  ( 0.015835 -0.009037 -0.049350)
 32:    509.59   0.004501   22.75  0.002756  ( 0.050093  0.003498  0.015328)
 33:   1811.65   0.821498  4151.52  0.141506  (-0.002630 -0.375167  0.027364)
 34:   1811.72   0.821120  4149.60  0.141435  ( 0.057778 -0.027480 -0.370597)
 35:   1811.85   0.821730  4152.69  0.141530  ( 0.371680  0.001685  0.058148)
 36:   1823.14   0.000000    0.00  0.000000  ( 0.000138  0.000055 -0.000001)
 37:   1823.29   0.000000    0.00  0.000000  ( 0.000178 -0.000224 -0.000037)
 38:   1958.36   0.000000    0.00  0.000000  ( 0.000006  0.000000  0.000002)

* The epsilon (eps) is given for a Dirac delta lineshape.
** The dipole moment derivative (T) already includes vibrational overlap.

The first frequency considered to be a vibration is 8
The total number of vibrations considered is 31


--------------------------
THERMOCHEMISTRY AT 298.15K
--------------------------

Temperature         ... 298.15 K
Pressure            ... 1.00 atm
Total Mass          ... 346.55 AMU

Throughout the following assumptions are being made:
  (1) The electronic state is orbitally nondegenerate
  (2) There are no thermally accessible electronically excited states
  (3) Hindered rotations indicated by low frequency modes are not
      treated as such but are treated as vibrations and this may
      cause some error
  (4) All equations used are the standard statistical mechanics
      equations for an ideal gas
  (5) All vibrations are strictly harmonic

freq.       3.46  E(vib)   ...       0.59 
freq.      41.00  E(vib)   ...       0.54 
freq.      41.20  E(vib)   ...       0.54 
freq.      41.38  E(vib)   ...       0.54 
freq.      52.13  E(vib)   ...       0.52 
freq.      52.17  E(vib)   ...       0.52 
freq.      52.37  E(vib)   ...       0.52 
freq.     338.44  E(vib)   ...       0.23 
freq.     338.65  E(vib)   ...       0.23 
freq.     338.85  E(vib)   ...       0.23 
freq.     338.91  E(vib)   ...       0.23 
freq.     339.10  E(vib)   ...       0.23 
freq.     340.70  E(vib)   ...       0.23 
freq.     340.72  E(vib)   ...       0.23 
freq.     341.04  E(vib)   ...       0.23 
freq.     346.53  E(vib)   ...       0.23 
freq.     402.86  E(vib)   ...       0.19 
freq.     403.06  E(vib)   ...       0.19 
freq.     403.14  E(vib)   ...       0.19 
freq.     453.79  E(vib)   ...       0.16 
freq.     453.86  E(vib)   ...       0.16 
freq.     453.88  E(vib)   ...       0.16 
freq.     509.45  E(vib)   ...       0.14 
freq.     509.55  E(vib)   ...       0.14 
freq.     509.59  E(vib)   ...       0.14 
freq.    1811.65  E(vib)   ...       0.00 
freq.    1811.72  E(vib)   ...       0.00 
freq.    1811.85  E(vib)   ...       0.00 
freq.    1823.14  E(vib)   ...       0.00 
freq.    1823.29  E(vib)   ...       0.00 
freq.    1958.36  E(vib)   ...       0.00 

------------
INNER ENERGY
------------

The inner energy is: U= E(el) + E(ZPE) + E(vib) + E(rot) + E(trans)
    E(el)   - is the total energy from the electronic structure calculation
              = E(kin-el) + E(nuc-el) + E(el-el) + E(nuc-nuc)
    E(ZPE)  - the the zero temperature vibrational energy from the frequency calculation
    E(vib)  - the the finite temperature correction to E(ZPE) due to population
              of excited vibrational states
    E(rot)  - is the rotational thermal energy
    E(trans)- is the translational thermal energy

Summary of contributions to the inner energy U:
Electronic energy                ...   -727.97532424 Eh
Zero point energy                ...      0.04211385 Eh      26.43 kcal/mol
Thermal vibrational correction   ...      0.01169647 Eh       7.34 kcal/mol
Thermal rotational correction    ...      0.00141627 Eh       0.89 kcal/mol
Thermal translational correction ...      0.00141627 Eh       0.89 kcal/mol
-----------------------------------------------------------------------
Total thermal energy                   -727.91868137 Eh


Summary of corrections to the electronic energy:
(perhaps to be used in another calculation)
Total thermal correction                  0.01452902 Eh       9.12 kcal/mol
Non-thermal (ZPE) correction              0.04211385 Eh      26.43 kcal/mol
-----------------------------------------------------------------------
Total correction                          0.05664287 Eh      35.54 kcal/mol


--------
ENTHALPY
--------

The enthalpy is H = U + kB*T
                kB is Boltzmann's constant
Total free energy                 ...   -727.91868137 Eh 
Thermal Enthalpy correction       ...      0.00094421 Eh       0.59 kcal/mol
-----------------------------------------------------------------------
Total Enthalpy                    ...   -727.91773716 Eh

[file orca_tools/Tool-Linalg/qcrdiag2.cpp, line 2737]: Diagonalization failed with error code: -5 !

