
                                 *****************
                                 * O   R   C   A *
                                 *****************

                                            #,                                       
                                            ###                                      
                                            ####                                     
                                            #####                                    
                                            ######                                   
                                           ########,                                 
                                     ,,################,,,,,                         
                               ,,#################################,,                 
                          ,,##########################################,,             
                       ,#########################################, ''#####,          
                    ,#############################################,,   '####,        
                  ,##################################################,,,,####,       
                ,###########''''           ''''###############################       
              ,#####''   ,,,,##########,,,,          '''####'''          '####       
            ,##' ,,,,###########################,,,                        '##       
           ' ,,###''''                  '''############,,,                           
         ,,##''                                '''############,,,,        ,,,,,,###''
      ,#''                                            '''#######################'''  
     '                                                          ''''####''''         
             ,#######,   #######,   ,#######,      ##                                
            ,#'     '#,  ##    ##  ,#'     '#,    #''#        ######   ,####,        
            ##       ##  ##   ,#'  ##            #'  '#       #        #'  '#        
            ##       ##  #######   ##           ,######,      #####,   #    #        
            '#,     ,#'  ##    ##  '#,     ,#' ,#      #,         ##   #,  ,#        
             '#######'   ##     ##  '#######'  #'      '#     #####' # '####'        



                  #######################################################
                  #                        -***-                        #
                  #          Department of theory and spectroscopy      #
                  #    Directorship and core code : Frank Neese         #
                  #        Max Planck Institute fuer Kohlenforschung    #
                  #                Kaiser Wilhelm Platz 1               #
                  #                 D-45470 Muelheim/Ruhr               #
                  #                      Germany                        #
                  #                                                     #
                  #                  All rights reserved                #
                  #                        -***-                        #
                  #######################################################



                         Program Version 5.0.4 -  RELEASE  -

 With contributions from (in alphabetic order):
   Daniel Aravena         : Magnetic Suceptibility
   Michael Atanasov       : Ab Initio Ligand Field Theory (pilot matlab implementation)
   Alexander A. Auer      : GIAO ZORA, VPT2 properties, NMR spectrum
   Ute Becker             : Parallelization
   Giovanni Bistoni       : ED, misc. LED, open-shell LED, HFLD
   Martin Brehm           : Molecular dynamics
   Dmytro Bykov           : SCF Hessian
   Vijay G. Chilkuri      : MRCI spin determinant printing, contributions to CSF-ICE
   Dipayan Datta          : RHF DLPNO-CCSD density
   Achintya Kumar Dutta   : EOM-CC, STEOM-CC
   Dmitry Ganyushin       : Spin-Orbit,Spin-Spin,Magnetic field MRCI
   Miquel Garcia          : C-PCM and meta-GGA Hessian, CC/C-PCM, Gaussian charge scheme
   Yang Guo               : DLPNO-NEVPT2, F12-NEVPT2, CIM, IAO-localization
   Andreas Hansen         : Spin unrestricted coupled pair/coupled cluster methods
   Benjamin Helmich-Paris : MC-RPA, TRAH-SCF, COSX integrals
   Lee Huntington         : MR-EOM, pCC
   Robert Izsak           : Overlap fitted RIJCOSX, COSX-SCS-MP3, EOM
   Marcus Kettner         : VPT2
   Christian Kollmar      : KDIIS, OOCD, Brueckner-CCSD(T), CCSD density, CASPT2, CASPT2-K
   Simone Kossmann        : Meta GGA functionals, TD-DFT gradient, OOMP2, MP2 Hessian
   Martin Krupicka        : Initial AUTO-CI
   Lucas Lang             : DCDCAS
   Marvin Lechner         : AUTO-CI (C++ implementation), FIC-MRCC
   Dagmar Lenk            : GEPOL surface, SMD
   Dimitrios Liakos       : Extrapolation schemes; Compound Job, initial MDCI parallelization
   Dimitrios Manganas     : Further ROCIS development; embedding schemes
   Dimitrios Pantazis     : SARC Basis sets
   Anastasios Papadopoulos: AUTO-CI, single reference methods and gradients
   Taras Petrenko         : DFT Hessian,TD-DFT gradient, ASA, ECA, R-Raman, ABS, FL, XAS/XES, NRVS
   Peter Pinski           : DLPNO-MP2, DLPNO-MP2 Gradient
   Christoph Reimann      : Effective Core Potentials
   Marius Retegan         : Local ZFS, SOC
   Christoph Riplinger    : Optimizer, TS searches, QM/MM, DLPNO-CCSD(T), (RO)-DLPNO pert. Triples
   Tobias Risthaus        : Range-separated hybrids, TD-DFT gradient, RPA, STAB
   Michael Roemelt        : Original ROCIS implementation
   Masaaki Saitow         : Open-shell DLPNO-CCSD energy and density
   Barbara Sandhoefer     : DKH picture change effects
   Avijit Sen             : IP-ROCIS
   Kantharuban Sivalingam : CASSCF convergence, NEVPT2, FIC-MRCI
   Bernardo de Souza      : ESD, SOC TD-DFT
   Georgi Stoychev        : AutoAux, RI-MP2 NMR, DLPNO-MP2 response
   Willem Van den Heuvel  : Paramagnetic NMR
   Boris Wezisla          : Elementary symmetry handling
   Frank Wennmohs         : Technical directorship


 We gratefully acknowledge several colleagues who have allowed us to
 interface, adapt or use parts of their codes:
   Stefan Grimme, W. Hujo, H. Kruse, P. Pracht,  : VdW corrections, initial TS optimization,
                  C. Bannwarth, S. Ehlert          DFT functionals, gCP, sTDA/sTD-DF
   Ed Valeev, F. Pavosevic, A. Kumar             : LibInt (2-el integral package), F12 methods
   Garnet Chan, S. Sharma, J. Yang, R. Olivares  : DMRG
   Ulf Ekstrom                                   : XCFun DFT Library
   Mihaly Kallay                                 : mrcc  (arbitrary order and MRCC methods)
   Jiri Pittner, Ondrej Demel                    : Mk-CCSD
   Frank Weinhold                                : gennbo (NPA and NBO analysis)
   Christopher J. Cramer and Donald G. Truhlar   : smd solvation model
   Lars Goerigk                                  : TD-DFT with DH, B97 family of functionals
   V. Asgeirsson, H. Jonsson                     : NEB implementation
   FAccTs GmbH                                   : IRC, NEB, NEB-TS, DLPNO-Multilevel, CI-OPT
                                                   MM, QMMM, 2- and 3-layer-ONIOM, Crystal-QMMM,
                                                   LR-CPCM, SF, NACMEs, symmetry and pop. for TD-DFT,
                                                   nearIR, NL-DFT gradient (VV10), updates on ESD,
                                                   ML-optimized integration grids
   S Lehtola, MJT Oliveira, MAL Marques          : LibXC Library
   Liviu Ungur et al                             : ANISO software


 Your calculation uses the libint2 library for the computation of 2-el integrals
 For citations please refer to: http://libint.valeyev.net

 Your ORCA version has been built with support for libXC version: 5.1.0
 For citations please refer to: https://tddft.org/programs/libxc/

 This ORCA versions uses:
   CBLAS   interface :  Fast vector & matrix operations
   LAPACKE interface :  Fast linear algebra routines
   Shared memory     :  Shared parallel matrices


================================================================================

cite the ECPs for Hf [Def2-ECP] as follows:
Ce-Yb(ecp-28): M. Dolg, H. Stoll, H.Preuss, J. Chem. Phys., 1989, 90, 1730-1734.
Y-Cd(ecp-28), Hf-Hg(ecp-46): D. Andrae,U. Haeussermann, M. Dolg, H. Stoll, H. Preuss, Theor. Chim. Acta, 1990, 77, 123-141.
In-Sb(ecp-28), Tl-Bi(ecp-46): B. Metz, H. Stoll, M. Dolg, J. Chem. Phys., 2000, 113, 2563-2569.
Te-Xe(ecp-28), Po-Rn(ecp-46): K. A. Peterson, D. Figgen, E. Goll, H. Stoll, M. Dolg, J. Chem. Phys., 2003, 119, 11113-11123.
Rb(ecp-28), Cs(ecp-46): T. Leininger, A. Nicklass, W. Kuechle, H. Stoll, M. Dolg, A. Bergner, Chem. Phys. Lett., 1996, 255, 274-280.
Sr(ecp-28), Ba(ecp-46): M. Kaupp, P. V. Schleyer, H. Stoll and H. Preuss, J. Chem. Phys., 1991, 94, 1360-1366.
La(ecp-46): M. Dolg, H. Stoll, A. Savin, H. Preuss, Theor. Chim. Acta, 1989, 75, 173-194.
Lu(ecp-28): X. Cao, M. Dolg, J. Chem. Phys., 2001, 115, 7348-7355.

ECP parameters for Hf [Def2-ECP] have been obtained from:
TURBOMOLE (7.0.2)

----- Orbital basis set information -----
Your calculation utilizes the basis: def2-TZVPD
   F. Weigend and R. Ahlrichs, Phys. Chem. Chem. Phys. 7, 3297 (2005).
   D. Rappoport and F. Furche, J. Chem. Phys. 133 134105 (2010).

----- AuxJ basis set information -----
Your calculation utilizes the auxiliary basis: def2/J
   F. Weigend, Phys. Chem. Chem. Phys. 8, 1057 (2006).

================================================================================
                                        WARNINGS
                       Please study these warnings very carefully!
================================================================================


WARNING: Geometry Optimization
  ===> : Switching off AutoStart
         For restart on a previous wavefunction, please use MOREAD

INFO   : the flag for use of the SHARK integral package has been found!

================================================================================
                                       INPUT FILE
================================================================================
NAME = HfCO6.inp
|  1> !B3LYP def2-TZVPD OPT FREQ TightSCF PAL8

|  2> 

|  3> %scf

|  4>   MaxIter 300

|  5> end

|  6> 

|  7> * xyz 0 1

|  8> Hf        -0.43733        0.82114       -0.00327

|  9> C          1.85069        0.75179       -0.21043

| 10> C         -0.36713        3.11851        0.00002

| 11> C         -2.72538        0.89099        0.20388

| 12> C         -0.50743       -1.47623       -0.00656

| 13> O         -0.33267        4.24599        0.00163

| 14> O          2.97368        0.71783       -0.31146

| 15> O         -0.54180       -2.60370       -0.00817

| 16> O         -3.84828        0.92536        0.30489

| 17> C         -0.64818        0.83067       -2.29202

| 18> C         -0.22660        0.81111        2.28546

| 19> O         -0.75232        0.83529       -3.41517

| 20> O         -0.12255        0.80608        3.40866

| 21> **                         ****END OF INPUT****
================================================================================

                       *****************************
                       * Geometry Optimization Run *
                       *****************************

Geometry optimization settings:
Update method            Update   .... BFGS
Choice of coordinates    CoordSys .... Z-matrix Internals
Initial Hessian          InHess   .... Almoef's Model

Convergence Tolerances:
Energy Change            TolE     ....  5.0000e-06 Eh
Max. Gradient            TolMAXG  ....  3.0000e-04 Eh/bohr
RMS Gradient             TolRMSG  ....  1.0000e-04 Eh/bohr
Max. Displacement        TolMAXD  ....  4.0000e-03 bohr
RMS Displacement         TolRMSD  ....  2.0000e-03 bohr
Strict Convergence                ....  False
------------------------------------------------------------------------------
                        ORCA OPTIMIZATION COORDINATE SETUP
------------------------------------------------------------------------------

The optimization will be done in new redundant internal coordinates
Making redundant internal coordinates   ...  (new redundants) done
Evaluating the initial hessian          ...  (Almloef) done
Evaluating the coordinates              ...  done
Calculating the B-matrix                .... done
Calculating the G-matrix                .... done
Diagonalizing the G-matrix              .... done
The first mode is                       ....    3
The number of degrees of freedom        ....   33

    -----------------------------------------------------------------
                    Redundant Internal Coordinates


    -----------------------------------------------------------------
         Definition                    Initial Value    Approx d2E/dq
    -----------------------------------------------------------------
      1. B(C   1,Hf  0)                  2.2984         0.051684   
      2. B(C   2,Hf  0)                  2.2984         0.051680   
      3. B(C   3,Hf  0)                  2.2985         0.051675   
      4. B(C   4,Hf  0)                  2.2984         0.051681   
      5. B(O   5,C   2)                  1.1280         1.465101   
      6. B(O   6,C   1)                  1.1280         1.464944   
      7. B(O   7,C   4)                  1.1280         1.465170   
      8. B(O   8,C   3)                  1.1280         1.465369   
      9. B(C   9,Hf  0)                  2.2985         0.051677   
     10. B(C  10,Hf  0)                  2.2984         0.051682   
     11. B(O  11,C   9)                  1.1280         1.465265   
     12. B(O  12,C  10)                  1.1280         1.465032   
     13. A(C   3,Hf  0,C   9)           89.9025         0.214951   
     14. A(C   2,Hf  0,C   9)           90.0047         0.214953   
     15. A(C   1,Hf  0,C  10)           89.9055         0.214958   
     16. A(C   4,Hf  0,C  10)           89.9920         0.214957   
     17. A(C   2,Hf  0,C  10)           90.0078         0.214956   
     18. A(C   4,Hf  0,C   9)           89.9955         0.214953   
     19. A(C   3,Hf  0,C  10)           90.0949         0.214954   
     20. A(C   3,Hf  0,C   4)           90.0082         0.214953   
     21. A(C   1,Hf  0,C   2)           89.9933         0.214957   
     22. A(C   2,Hf  0,C   3)           89.9942         0.214952   
     23. A(C   1,Hf  0,C   4)           90.0042         0.214957   
     24. A(C   1,Hf  0,C   9)           90.0971         0.214955   
     25. L(Hf  0,C   1,O   6,C  10, 1) 179.9673         0.340188   
     26. L(Hf  0,C   1,O   6,C  10, 2) 180.0057         0.340188   
     27. L(Hf  0,C   2,O   5,C   1, 2) 179.9997         0.340190   
     28. L(Hf  0,C   2,O   5,C   1, 1) 179.9996         0.340190   
     29. L(Hf  0,C   3,O   8,C   9, 2) 180.0064         0.340195   
     30. L(Hf  0,C   3,O   8,C   9, 1) 179.9670         0.340195   
     31. L(Hf  0,C   4,O   7,C  10, 2) 180.0023         0.340193   
     32. L(Hf  0,C   4,O   7,C  10, 1) 179.9996         0.340193   
     33. L(Hf  0,C   9,O  11,C   3, 2) 180.0055         0.340193   
     34. L(Hf  0,C   9,O  11,C   3, 1) 179.9662         0.340193   
     35. L(Hf  0,C  10,O  12,C   1, 2) 180.0063         0.340190   
     36. L(Hf  0,C  10,O  12,C   1, 1) 179.9678         0.340190   
    -----------------------------------------------------------------

Number of atoms                         .... 13
Number of degrees of freedom            .... 36

         *************************************************************
         *                GEOMETRY OPTIMIZATION CYCLE   1            *
         *************************************************************
---------------------------------
CARTESIAN COORDINATES (ANGSTROEM)
---------------------------------
  Hf    -0.437330    0.821140   -0.003270
  C      1.850690    0.751790   -0.210430
  C     -0.367130    3.118510    0.000020
  C     -2.725380    0.890990    0.203880
  C     -0.507430   -1.476230   -0.006560
  O     -0.332670    4.245990    0.001630
  O      2.973680    0.717830   -0.311460
  O     -0.541800   -2.603700   -0.008170
  O     -3.848280    0.925360    0.304890
  C     -0.648180    0.830670   -2.292020
  C     -0.226600    0.811110    2.285460
  O     -0.752320    0.835290   -3.415170
  O     -0.122550    0.806080    3.408660

----------------------------
CARTESIAN COORDINATES (A.U.)
----------------------------
  NO LB      ZA    FRAG     MASS         X           Y           Z
   0 Hf   12.0000*   0   178.490   -0.826434    1.551730   -0.006179
   1 C     6.0000    0    12.011    3.497297    1.420677   -0.397655
   2 C     6.0000    0    12.011   -0.693775    5.893130    0.000038
   3 C     6.0000    0    12.011   -5.150222    1.683727    0.385277
   4 C     6.0000    0    12.011   -0.958904   -2.789670   -0.012397
   5 O     8.0000    0    15.999   -0.628655    8.023758    0.003080
   6 O     8.0000    0    15.999    5.619441    1.356502   -0.588574
   7 O     8.0000    0    15.999   -1.023854   -4.920280   -0.015439
   8 O     8.0000    0    15.999   -7.272195    1.748677    0.576159
   9 C     6.0000    0    12.011   -1.224883    1.569739   -4.331290
  10 C     6.0000    0    12.011   -0.428212    1.532776    4.318893
  11 O     8.0000    0    15.999   -1.421679    1.578469   -6.453736
  12 O     8.0000    0    15.999   -0.231586    1.523270    6.441434
* core charge reduced due to ECP

--------------------------------
INTERNAL COORDINATES (ANGSTROEM)
--------------------------------
 Hf     0   0   0     0.000000000000     0.00000000     0.00000000
 C      1   0   0     2.298425593423     0.00000000     0.00000000
 C      1   2   0     2.298444643884    89.99333164     0.00000000
 C      1   2   3     2.298469696885   179.98755957     1.69360706
 C      1   2   3     2.298441591818    90.00418684   180.00022447
 O      3   1   2     1.128007639203   179.99953259    25.06024110
 O      2   1   3     1.128036738143   179.96705257    83.02433160
 O      5   1   2     1.127994897994   179.99832515    13.22061986
 O      4   1   2     1.127957768270   179.96666714    80.51700504
 C      1   2   3     2.298461464959    90.09709529    90.00473603
 C      1   2   3     2.298432671779    89.90546033   269.99218602
 O     10   1   2     1.127977130309   179.96597053   173.40112571
 O     11   1   2     1.128020364798   179.96748502   352.06131053

---------------------------
INTERNAL COORDINATES (A.U.)
---------------------------
 Hf     0   0   0     0.000000000000     0.00000000     0.00000000
 C      1   0   0     4.343394910764     0.00000000     0.00000000
 C      1   2   0     4.343430910919    89.99333164     0.00000000
 C      1   2   3     4.343478254230   179.98755957     1.69360706
 C      1   2   3     4.343425143351    90.00418684   180.00022447
 O      3   1   2     2.131625515064   179.99953259    25.06024110
 O      2   1   3     2.131680504092   179.96705257    83.02433160
 O      5   1   2     2.131601437669   179.99832515    13.22061986
 O      4   1   2     2.131531272659   179.96666714    80.51700504
 C      1   2   3     4.343462698143    90.09709529    90.00473603
 C      1   2   3     4.343408286919    89.90546033   269.99218602
 O     10   1   2     2.131567861610   179.96597053   173.40112571
 O     11   1   2     2.131649562955   179.96748502   352.06131053

---------------------
BASIS SET INFORMATION
---------------------
There are 3 groups of distinct atoms

 Group   1 Type Hf  : 9s8p5d1f contracted to 6s5p3d1f pattern {411111/41111/311/1}
 Group   2 Type C   : 12s6p3d1f contracted to 6s3p3d1f pattern {621111/411/111/1}
 Group   3 Type O   : 12s7p3d1f contracted to 6s4p3d1f pattern {621111/4111/111/1}

Atom   0Hf   basis set group =>   1
Atom   1C    basis set group =>   2
Atom   2C    basis set group =>   2
Atom   3C    basis set group =>   2
Atom   4C    basis set group =>   2
Atom   5O    basis set group =>   3
Atom   6O    basis set group =>   3
Atom   7O    basis set group =>   3
Atom   8O    basis set group =>   3
Atom   9C    basis set group =>   2
Atom  10C    basis set group =>   2
Atom  11O    basis set group =>   3
Atom  12O    basis set group =>   3
---------------------------------
AUXILIARY/J BASIS SET INFORMATION
---------------------------------
There are 3 groups of distinct atoms

 Group   1 Type Hf  : 11s5p5d3f3g contracted to 8s5p5d2f3g pattern {41111111/11111/11111/21/111}
 Group   2 Type C   : 12s5p4d2f1g contracted to 6s4p3d1f1g pattern {711111/2111/211/2/1}
 Group   3 Type O   : 12s5p4d2f1g contracted to 6s4p3d1f1g pattern {711111/2111/211/2/1}

Atom   0Hf   basis set group =>   1
Atom   1C    basis set group =>   2
Atom   2C    basis set group =>   2
Atom   3C    basis set group =>   2
Atom   4C    basis set group =>   2
Atom   5O    basis set group =>   3
Atom   6O    basis set group =>   3
Atom   7O    basis set group =>   3
Atom   8O    basis set group =>   3
Atom   9C    basis set group =>   2
Atom  10C    basis set group =>   2
Atom  11O    basis set group =>   3
Atom  12O    basis set group =>   3
-------------------------
ECP PARAMETER INFORMATION
-------------------------

 Group 1, Type Hf ECP Def2-ECP (replacing 60 core electrons, lmax=3)

Atom   0Hf   ECP group =>   1



           ************************************************************
           *        Program running with 8 parallel MPI-processes     *
           *              working on a common directory               *
           ************************************************************
------------------------------------------------------------------------------
                           ORCA GTO INTEGRAL CALCULATION
                           -- RI-GTO INTEGRALS CHOSEN --
------------------------------------------------------------------------------
------------------------------------------------------------------------------
                   ___                                                        
                  /   \      - P O W E R E D   B Y -                         
                 /     \                                                     
                 |  |  |   _    _      __       _____    __    __             
                 |  |  |  | |  | |    /  \     |  _  \  |  |  /  |          
                  \  \/   | |  | |   /    \    | | | |  |  | /  /          
                 / \  \   | |__| |  /  /\  \   | |_| |  |  |/  /          
                |  |  |   |  __  | /  /__\  \  |    /   |      \           
                |  |  |   | |  | | |   __   |  |    \   |  |\   \          
                \     /   | |  | | |  |  |  |  | |\  \  |  | \   \       
                 \___/    |_|  |_| |__|  |__|  |_| \__\ |__|  \__/        
                                                                              
                      - O R C A' S   B I G   F R I E N D -                    
                                      &                                       
                       - I N T E G R A L  F E E D E R -                       
                                                                              
 v1 FN, 2020, v2 2021                                                         
------------------------------------------------------------------------------


Reading SHARK input file HfCO6.SHARKINP.tmp ... ok
----------------------
SHARK INTEGRAL PACKAGE
----------------------

Number of atoms                             ...     13
Number of basis functions                   ...    505
Number of shells                            ...    177
Maximum angular momentum                    ...      3
Integral batch strategy                     ... SHARK/LIBINT Hybrid
RI-J (if used) integral strategy            ... SPLIT-RIJ (Revised 2003 algorithm where possible)
Printlevel                                  ...      1
Contraction scheme used                     ... SEGMENTED contraction
Coulomb Range Separation                    ... NOT USED
Exchange Range Separation                   ... NOT USED
Finite Nucleus Model                        ... NOT USED
Auxiliary Coulomb fitting basis             ... AVAILABLE
   # of basis functions in Aux-J            ...    677
   # of shells in Aux-J                     ...    203
   Maximum angular momentum in Aux-J        ...      4
Auxiliary J/K fitting basis                 ... NOT available
Auxiliary Correlation fitting basis         ... NOT available
Auxiliary 'external' fitting basis          ... NOT available
Integral threshold                          ...     2.500000e-11
Primitive cut-off                           ...     2.500000e-12
Primitive pair pre-selection threshold      ...     2.500000e-12

Calculating pre-screening integrals         ... done (  0.0 sec) Dimension = 177
Organizing shell pair data                  ... done (  0.2 sec)
Shell pair information
Total number of shell pairs                 ...     15753
Shell pairs after pre-screening             ...     13200
Total number of primitive shell pairs       ...     43350
Primitive shell pairs kept                  ...     26309
          la=0 lb=0:   2385 shell pairs
          la=1 lb=0:   3156 shell pairs
          la=1 lb=1:   1041 shell pairs
          la=2 lb=0:   2532 shell pairs
          la=2 lb=1:   1659 shell pairs
          la=2 lb=2:    687 shell pairs
          la=3 lb=0:    756 shell pairs
          la=3 lb=1:    533 shell pairs
          la=3 lb=2:    381 shell pairs
          la=3 lb=3:     70 shell pairs

Calculating one electron integrals          ... done (  0.0 sec)
Calculating ECP integrals                   ... done (  1.2 sec)
Calculating RI/J V-Matrix + Cholesky decomp.... done (  0.1 sec)
Calculating Nuclear repulsion               ... done (  0.0 sec) ENN=    679.356281637222 Eh

SHARK setup successfully completed in   1.8 seconds

Maximum memory used throughout the entire GTOINT-calculation: 25.2 MB


           ************************************************************
           *        Program running with 8 parallel MPI-processes     *
           *              working on a common directory               *
           ************************************************************
-------------------------------------------------------------------------------
                                 ORCA SCF
-------------------------------------------------------------------------------

------------
SCF SETTINGS
------------
Hamiltonian:
 Density Functional     Method          .... DFT(GTOs)
 Exchange Functional    Exchange        .... B88
   X-Alpha parameter    XAlpha          ....  0.666667
   Becke's b parameter  XBeta           ....  0.004200
 Correlation Functional Correlation     .... LYP
 LDA part of GGA corr.  LDAOpt          .... VWN-5
 Gradients option       PostSCFGGA      .... off
 Hybrid DFT is turned on
   Fraction HF Exchange ScalHFX         ....  0.200000
   Scaling of DF-GGA-X  ScalDFX         ....  0.720000
   Scaling of DF-GGA-C  ScalDFC         ....  0.810000
   Scaling of DF-LDA-C  ScalLDAC        ....  1.000000
   Perturbative correction              ....  0.000000
   Density functional embedding theory  .... OFF
   NL short-range parameter             ....  4.800000
 RI-approximation to the Coulomb term is turned on
   Number of AuxJ basis functions       .... 677
   RIJ-COSX (HFX calculated with COS-X)).... on


General Settings:
 Integral files         IntName         .... HfCO6
 Hartree-Fock type      HFTyp           .... RHF
 Total Charge           Charge          ....    0
 Multiplicity           Mult            ....    1
 Number of Electrons    NEL             ....   96
 Basis Dimension        Dim             ....  505
 Nuclear Repulsion      ENuc            ....    679.3562816372 Eh

Convergence Acceleration:
 DIIS                   CNVDIIS         .... on
   Start iteration      DIISMaxIt       ....    12
   Startup error        DIISStart       ....  0.200000
   # of expansion vecs  DIISMaxEq       ....     5
   Bias factor          DIISBfac        ....   1.050
   Max. coefficient     DIISMaxC        ....  10.000
 Trust-Rad. Augm. Hess. CNVTRAH         .... auto
   Auto Start mean grad. ratio tolernc. ....  1.125000
   Auto Start start iteration           ....    20
   Auto Start num. interpolation iter.  ....    10
   Max. Number of Micro iterations      ....    16
   Max. Number of Macro iterations      .... Maxiter - #DIIS iter
   Number of Davidson start vectors     ....     2
   Converg. threshold I  (grad. norm)   ....   1.000e-05
   Converg. threshold II (energy diff.) ....   1.000e-08
   Grad. Scal. Fac. for Micro threshold ....   0.100
   Minimum threshold for Micro iter.    ....   0.010
   NR start threshold (gradient norm)   ....   0.001
   Initial trust radius                 ....   0.400
   Minimum AH scaling param. (alpha)    ....   1.000
   Maximum AH scaling param. (alpha)    .... 1000.000
   Orbital update algorithm             .... Taylor
   White noise on init. David. guess    .... on
   Maximum white noise                  ....   0.010
   Quad. conv. algorithm                .... NR
 SOSCF                  CNVSOSCF        .... off
 Level Shifting         CNVShift        .... on
   Level shift para.    LevelShift      ....    0.2500
   Turn off err/grad.   ShiftErr        ....    0.0010
 Zerner damping         CNVZerner       .... off
 Static damping         CNVDamp         .... on
   Fraction old density DampFac         ....    0.7000
   Max. Damping (<1)    DampMax         ....    0.9800
   Min. Damping (>=0)   DampMin         ....    0.0000
   Turn off err/grad.   DampErr         ....    0.1000
 Fernandez-Rico         CNVRico         .... off

SCF Procedure:
 Maximum # iterations   MaxIter         ....   300
 SCF integral mode      SCFMode         .... Direct
   Integral package                     .... SHARK and LIBINT hybrid scheme
 Reset frequency        DirectResetFreq ....    20
 Integral Threshold     Thresh          ....  2.500e-11 Eh
 Primitive CutOff       TCut            ....  2.500e-12 Eh

Convergence Tolerance:
 Convergence Check Mode ConvCheckMode   .... Total+1el-Energy
 Convergence forced     ConvForced      .... 0
 Energy Change          TolE            ....  1.000e-08 Eh
 1-El. energy change                    ....  1.000e-05 Eh
 DIIS Error             TolErr          ....  5.000e-07


Diagonalization of the overlap matrix:
Smallest eigenvalue                        ... 8.576e-06
Time for diagonalization                   ...    0.071 sec
Threshold for overlap eigenvalues          ... 1.000e-08
Number of eigenvalues below threshold      ... 0
Time for construction of square roots      ...    0.125 sec
Total time needed                          ...    0.198 sec

Time for model grid setup =    0.172 sec

------------------------------
INITIAL GUESS: MODEL POTENTIAL
------------------------------
Loading Hartree-Fock densities                     ... done
  calling C:\orca_5_0_4\orca HfCO6_atom72.inp > HfCO6_atom72.out in order to generate an atomic fitting density for atom 0 (Hf with ECP) on-the-fly... 
    atom 0 (Hf), assumed electronic state with S=3: 1s2 2s2 2p6 3s2 3p6 4s2 3d10 4p6 5s2 4d10 5p6 6s2 4f14 5d2           ... done
Calculating cut-offs                               ... done
Initializing the effective Hamiltonian             ... done
Setting up the integral package (SHARK)            ... done
Starting the Coulomb interaction                   ... done (   0.1 sec)
Reading the grid                                   ... done
Mapping shells                                     ... done
Starting the XC term evaluation                    ... done (   0.3 sec)
  promolecular density results
     # of electrons  =    156.001127423
     EX              =   -390.362616300
     EC              =     -6.850121835
     EX+EC           =   -397.212738135
Transforming the Hamiltonian                       ... done (   0.1 sec)
Diagonalizing the Hamiltonian                      ... done (   0.1 sec)
Back transforming the eigenvectors                 ... done (   0.0 sec)
Now organizing SCF variables                       ... done
                      ------------------
                      INITIAL GUESS DONE (   4.6 sec)
                      ------------------
-------------------
DFT GRID GENERATION
-------------------

General Integration Accuracy     IntAcc      ... 4.388
Radial Grid Type                 RadialGrid  ... OptM3 with GC (2021)
Angular Grid (max. ang.)         AngularGrid ... 4 (Lebedev-302)
Angular grid pruning method      GridPruning ... 4 (adaptive)
Weight generation scheme         WeightScheme... Becke
Basis function cutoff            BFCut       ... 1.0000e-11
Integration weight cutoff        WCut        ... 1.0000e-14
Angular grids for H and He will be reduced by one unit
Partially contracted basis set               ... off
Rotationally invariant grid construction     ... off

Total number of grid points                  ...    87864
Total number of batches                      ...     1380
Average number of points per batch           ...       63
Average number of grid points per atom       ...     6759
Time for grid setup =    0.696 sec

--------------------
COSX GRID GENERATION
--------------------

GRIDX 1
-------
General Integration Accuracy     IntAcc      ... 3.816
Radial Grid Type                 RadialGrid  ... OptM3 with GC (2021)
Angular Grid (max. ang.)         AngularGrid ... 1 (Lebedev-50)
Angular grid pruning method      GridPruning ... 4 (adaptive)
Weight generation scheme         WeightScheme... Becke
Basis function cutoff            BFCut       ... 1.0000e-11
Integration weight cutoff        WCut        ... 1.0000e-14
Angular grids for H and He will be reduced by one unit
Partially contracted basis set               ... on
Rotationally invariant grid construction     ... off

Total number of grid points                  ...    10834
Total number of batches                      ...      174
Average number of points per batch           ...       62
Average number of grid points per atom       ...      833
UseSFitting                                  ... on

GRIDX 2
-------
General Integration Accuracy     IntAcc      ... 4.020
Radial Grid Type                 RadialGrid  ... OptM3 with GC (2021)
Angular Grid (max. ang.)         AngularGrid ... 2 (Lebedev-110)
Angular grid pruning method      GridPruning ... 4 (adaptive)
Weight generation scheme         WeightScheme... Becke
Basis function cutoff            BFCut       ... 1.0000e-11
Integration weight cutoff        WCut        ... 1.0000e-14
Angular grids for H and He will be reduced by one unit
Partially contracted basis set               ... on
Rotationally invariant grid construction     ... off

Total number of grid points                  ...    30045
Total number of batches                      ...      479
Average number of points per batch           ...       62
Average number of grid points per atom       ...     2311
UseSFitting                                  ... on

GRIDX 3
-------
General Integration Accuracy     IntAcc      ... 4.338
Radial Grid Type                 RadialGrid  ... OptM3 with GC (2021)
Angular Grid (max. ang.)         AngularGrid ... 3 (Lebedev-194)
Angular grid pruning method      GridPruning ... 4 (adaptive)
Weight generation scheme         WeightScheme... Becke
Basis function cutoff            BFCut       ... 1.0000e-11
Integration weight cutoff        WCut        ... 1.0000e-14
Angular grids for H and He will be reduced by one unit
Partially contracted basis set               ... on
Rotationally invariant grid construction     ... off

Total number of grid points                  ...    63440
Total number of batches                      ...     1000
Average number of points per batch           ...       63
Average number of grid points per atom       ...     4880
UseSFitting                                  ... on

Time for X-Grid setup             =    1.774 sec

--------------
SCF ITERATIONS
--------------
ITER       Energy         Delta-E        Max-DP      RMS-DP      [F,P]     Damp
               ***  Starting incremental Fock matrix formation  ***
  0   -727.6334130153   0.000000000000 0.31204649  0.00155855  0.3938727 0.7000
  1   -727.7756563979  -0.142243382588 0.22365201  0.00109001  0.2707718 0.7000
                               ***Turning on DIIS***
  2   -727.8268002508  -0.051143852914 0.14828319  0.00072038  0.1838687 0.7000
  3   -727.8631314588  -0.036331207985 0.09235615  0.00047125  0.1250357 0.7000
  4   -727.8882275396  -0.025096080844 0.21434558  0.00109731  0.0871077 0.0000
  5   -727.9451137952  -0.056886255602 0.01636585  0.00007346  0.0039014 0.0000
  6   -727.9452845294  -0.000170734210 0.00116576  0.00002275  0.0029600 0.0000
  7   -727.9453764140  -0.000091884563 0.00097222  0.00001538  0.0016522 0.0000
  8   -727.9454206492  -0.000044235203 0.00093650  0.00001473  0.0016912 0.0000
  9   -727.9454633283  -0.000042679132 0.00066412  0.00001170  0.0017138 0.0000
 10   -727.9455041707  -0.000040842310 0.00052825  0.00000815  0.0017373 0.0000
 11   -727.9455374955  -0.000033324830 0.00065794  0.00000903  0.0017481 0.0000
 12   -727.9455614095  -0.000023914041 0.00041436  0.00000866  0.0017453 0.0000
 13   -727.9455899297  -0.000028520191 0.00081338  0.00001180  0.0017565 0.0000
 14   -727.9456222872  -0.000032357472 0.00071141  0.00001104  0.0017812 0.0000
 15   -727.9456555446  -0.000033257419 0.00097269  0.00001358  0.0018009 0.0000
 16   -727.9456920369  -0.000036492261 0.00171331  0.00002194  0.0018340 0.0000
 17   -727.9457396252  -0.000047588286 0.00100088  0.00001606  0.0018833 0.0000
 18   -727.9457894395  -0.000049814332 0.00066916  0.00001332  0.0018994 0.0000
 19   -727.9458386611  -0.000049221614 0.00054666  0.00000901  0.0019124 0.0000
               *** Restarting incremental Fock matrix formation ***
                                   *** Resetting DIIS ***

 WARNING: the maximum gradient error descreased on average only by a factor   1.0
          during the last 20 iterations

                      *** Initiating the TRAH-SCF procedure ***


TRAH GRIDX
----------

General Integration Accuracy     IntAcc      ... 3.067
Radial Grid Type                 RadialGrid  ... OptM3 with GC (2021)
Angular Grid (max. ang.)         AngularGrid ... 1 (Lebedev-50)
Angular grid pruning method      GridPruning ... 4 (adaptive)
Weight generation scheme         WeightScheme... Becke
Basis function cutoff            BFCut       ... 1.0000e-11
Integration weight cutoff        WCut        ... 1.0000e-14
Angular grids for H and He will be reduced by one unit
Partially contracted basis set               ... on
Rotationally invariant grid construction     ... off

Total number of grid points                  ...     6188
Total number of batches                      ...      101
Average number of points per batch           ...       61
Average number of grid points per atom       ...      476


TRAH GRID
---------

General Integration Accuracy     IntAcc      ... 3.467
Radial Grid Type                 RadialGrid  ... OptM3 with GC (2021)
Angular Grid (max. ang.)         AngularGrid ... 1 (Lebedev-50)
Angular grid pruning method      GridPruning ... 4 (adaptive)
Weight generation scheme         WeightScheme... Becke
Basis function cutoff            BFCut       ... 1.0000e-11
Integration weight cutoff        WCut        ... 1.0000e-14
Angular grids for H and He will be reduced by one unit
Partially contracted basis set               ... off
Rotationally invariant grid construction     ... off

Total number of grid points                  ...    17147
Total number of batches                      ...      275
Average number of points per batch           ...       62
Average number of grid points per atom       ...     1319

 --------------------------------------------------------------------------------------------
   Iter.        energy            ||Error||_2        Shift      TRadius  Mac/Mic        Rej.
 --------------------------------------------------------------------------------------------
    0       -727.945923012024     8.915425e-03                     0.400 (TRAH MAcro)   No
    0     dE    -2.138182e-05     3.632346e-02    -4.2763e-05      0.005 (TRAH MIcro)
    0     dE    -3.155575e-03     1.492584e-01    -2.5455e-02      0.365 (TRAH MIcro)
    0     dE    -4.387649e-03     4.904559e-02    -3.4658e-02      0.400 (TRAH MIcro)
    0     dE    -4.476986e-03     1.865955e-02    -3.5732e-02      0.400 (TRAH MIcro)
    0     dE    -4.499641e-03     9.446361e-03    -3.6018e-02      0.400 (TRAH MIcro)
    0     dE    -4.513800e-03     1.136610e-02    -3.6244e-02      0.400 (TRAH MIcro)
    0     dE    -4.529606e-03     1.284926e-02    -3.6576e-02      0.400 (TRAH MIcro)
    0     dE    -4.554005e-03     8.688666e-03    -3.7260e-02      0.400 (TRAH MIcro)
    0     dE    -4.558939e-03     3.767704e-03    -3.7421e-02      0.400 (TRAH MIcro)
    0     dE    -4.559675e-03     1.155133e-03    -3.7448e-02      0.400 (TRAH MIcro)
    0     dE    -4.559746e-03     4.168879e-04    -3.7451e-02      0.400 (TRAH MIcro)
    1       -727.949114036520     5.763521e-02                     0.400 (TRAH MAcro)   No
    1     dE    -1.779643e-04     8.845230e-02    -3.5591e-04      0.006 (TRAH MIcro)
    1     dE    -5.224650e-04     3.680539e-02    -1.0433e-03      0.040 (TRAH MIcro)
    1     dE    -9.427091e-04     6.854159e-02    -1.8476e-03      0.143 (TRAH MIcro)
    1     dE    -1.255096e-03     3.289640e-02    -2.3843e-03      0.230 (TRAH MIcro)
    1     dE    -1.368876e-03     1.229937e-02    -2.5644e-03      0.260 (TRAH MIcro)
    1     dE    -1.384829e-03     7.005295e-03    -2.5880e-03      0.265 (TRAH MIcro)
    1     dE    -1.389649e-03     4.786457e-03    -2.5949e-03      0.267 (TRAH MIcro)
    2       -727.950474900571     1.820197e-02                     0.480 (TRAH MAcro)   No
    2     dE    -2.267701e-06     1.067752e-01    -4.5354e-06      0.000 (TRAH MIcro)
    2     dE    -2.647836e-05     1.401552e-02    -5.2956e-05      0.005 (TRAH MIcro)
    2     dE    -3.018163e-05     2.789343e-03    -6.0362e-05      0.005 (TRAH MIcro)
    2     dE    -3.108425e-05     3.269728e-03    -6.2167e-05      0.006 (TRAH MIcro)
    2     dE    -3.182287e-05     2.217282e-03    -6.3642e-05      0.008 (TRAH MIcro)
    2     dE    -3.263347e-05     2.764916e-03    -6.5258e-05      0.012 (TRAH MIcro)
    2     dE    -3.300745e-05     1.921774e-03    -6.6002e-05      0.014 (TRAH MIcro)
    2     dE    -3.310756e-05     4.329210e-04    -6.6201e-05      0.015 (TRAH MIcro)
    3       -727.950508152291     4.475104e-04                           (NR   MAcro)
    3     dE    -6.269159e-09     1.073127e-04                           (NR   MIcro)
    3     dE    -7.632841e-09     9.547858e-05                           (NR   MIcro)
    3     dE    -8.895403e-09     1.196894e-04                           (NR   MIcro)
    3     dE    -9.964273e-09     9.132553e-05                           (NR   MIcro)
    3     dE    -1.065979e-08     4.084506e-05                           (NR   MIcro)
    3     dE    -1.074568e-08     2.453612e-05                           (NR   MIcro)
    3     dE    -1.076565e-08     9.209547e-06                           (NR   MIcro)
    3     dE    -1.076801e-08     1.928881e-06                           (NR   MIcro)
    4       -727.950508165999     2.762646e-06                           (NR   MAcro)
    4     dE    -5.235915e-13     1.758913e-06                           (NR   MIcro)
    4     dE    -8.014305e-13     4.716581e-07                           (NR   MIcro)
    5       -727.950508166006     4.724803e-07                           (NR   MAcro)

               *****************************************************
               *                     SUCCESS                       *
               *           SCF CONVERGED AFTER  62 CYCLES          *
               *****************************************************

Old exchange energy                            =    -17.076248355 Eh
New exchange energy                            =    -17.076223965 Eh
Exchange energy change after final integration =      0.000024390 Eh
Total energy after final integration           =   -727.950483776 Eh
Final COS-X integration done in                =    11.240 sec

----------------
TOTAL SCF ENERGY
----------------

Total Energy       :         -727.95048378 Eh          -19808.53971 eV

Components:
Nuclear Repulsion  :          679.35628164 Eh           18486.22424 eV
Electronic Energy  :        -1407.30676541 Eh          -38294.76396 eV
One Electron Energy:        -2357.45874331 Eh          -64149.71371 eV
Two Electron Energy:          950.15197790 Eh           25854.94976 eV
Max COSX asymmetry :            0.00000094 Eh               0.00003 eV

Virial components:
Potential Energy   :        -1422.28067625 Eh          -38702.22478 eV
Kinetic Energy     :          694.33019247 Eh           18893.68507 eV
Virial Ratio       :            2.04842119


DFT components:
N(Alpha)           :       47.999998535752 electrons
N(Beta)            :       47.999998535752 electrons
N(Total)           :       95.999997071504 electrons
E(X)               :      -68.298209851620 Eh       
E(C)               :       -3.925158560659 Eh       
E(XC)              :      -72.223368412279 Eh       
DFET-embed. en.    :        0.000000000000 Eh       

---------------
SCF CONVERGENCE
---------------

  Last Energy change         ...   -6.8212e-12  Tolerance :   1.0000e-08
  Last Orbital Gradient      ...    4.7248e-07  Tolerance :   1.0000e-05
  Last Orbital Rotation      ...    1.3663e-06

             **** THE GBW FILE WAS UPDATED (HfCO6.gbw) ****
             **** DENSITY HfCO6.scfp WAS UPDATED ****
             **** ENERGY FILE WAS UPDATED (HfCO6.en.tmp) ****
             **** THE GBW FILE WAS UPDATED (HfCO6.gbw) ****
             **** DENSITY HfCO6.scfp WAS UPDATED ****
----------------
ORBITAL ENERGIES
----------------

  NO   OCC          E(Eh)            E(eV) 
   0   2.0000     -19.227406      -523.2043 
   1   2.0000     -19.227401      -523.2042 
   2   2.0000     -19.227353      -523.2029 
   3   2.0000     -19.227325      -523.2021 
   4   2.0000     -19.227321      -523.2020 
   5   2.0000     -19.227303      -523.2015 
   6   2.0000     -10.293800      -280.1085 
   7   2.0000     -10.293797      -280.1085 
   8   2.0000     -10.293752      -280.1072 
   9   2.0000     -10.293746      -280.1071 
  10   2.0000     -10.293728      -280.1066 
  11   2.0000     -10.293722      -280.1064 
  12   2.0000      -2.436156       -66.2912 
  13   2.0000      -1.291855       -35.1532 
  14   2.0000      -1.278035       -34.7771 
  15   2.0000      -1.278021       -34.7767 
  16   2.0000      -1.165112       -31.7043 
  17   2.0000      -1.164830       -31.6966 
  18   2.0000      -1.164805       -31.6960 
  19   2.0000      -1.164792       -31.6956 
  20   2.0000      -1.164734       -31.6940 
  21   2.0000      -1.164721       -31.6937 
  22   2.0000      -0.593219       -16.1423 
  23   2.0000      -0.580035       -15.7835 
  24   2.0000      -0.579992       -15.7824 
  25   2.0000      -0.578341       -15.7375 
  26   2.0000      -0.578185       -15.7332 
  27   2.0000      -0.578161       -15.7326 
  28   2.0000      -0.492962       -13.4142 
  29   2.0000      -0.486091       -13.2272 
  30   2.0000      -0.486060       -13.2264 
  31   2.0000      -0.486014       -13.2251 
  32   2.0000      -0.483614       -13.1598 
  33   2.0000      -0.482272       -13.1233 
  34   2.0000      -0.482243       -13.1225 
  35   2.0000      -0.480005       -13.0616 
  36   2.0000      -0.479994       -13.0613 
  37   2.0000      -0.479156       -13.0385 
  38   2.0000      -0.477226       -12.9860 
  39   2.0000      -0.477208       -12.9855 
  40   2.0000      -0.476405       -12.9636 
  41   2.0000      -0.448905       -12.2153 
  42   2.0000      -0.448864       -12.2142 
  43   2.0000      -0.420468       -11.4415 
  44   2.0000      -0.419645       -11.4191 
  45   2.0000      -0.419582       -11.4174 
  46   2.0000      -0.186861        -5.0848 
  47   2.0000      -0.186776        -5.0824 
  48   0.0000      -0.148201        -4.0328 
  49   0.0000      -0.072287        -1.9670 
  50   0.0000      -0.072229        -1.9655 
  51   0.0000      -0.069908        -1.9023 
  52   0.0000      -0.048227        -1.3123 
  53   0.0000      -0.046891        -1.2760 
  54   0.0000      -0.046805        -1.2736 
  55   0.0000      -0.013512        -0.3677 
  56   0.0000      -0.013029        -0.3545 
  57   0.0000      -0.013014        -0.3541 
  58   0.0000      -0.003046        -0.0829 
  59   0.0000       0.017306         0.4709 
  60   0.0000       0.019230         0.5233 
  61   0.0000       0.019247         0.5237 
  62   0.0000       0.036917         1.0046 
  63   0.0000       0.036925         1.0048 
  64   0.0000       0.050474         1.3735 
  65   0.0000       0.051401         1.3987 
  66   0.0000       0.051429         1.3995 
  67   0.0000       0.072965         1.9855 
  68   0.0000       0.073158         1.9907 
  69   0.0000       0.073182         1.9914 
  70   0.0000       0.073280         1.9940 
  71   0.0000       0.073308         1.9948 
  72   0.0000       0.074853         2.0369 
  73   0.0000       0.081781         2.2254 
  74   0.0000       0.087605         2.3838 
  75   0.0000       0.087650         2.3851 
  76   0.0000       0.089059         2.4234 
  77   0.0000       0.099516         2.7080 
  78   0.0000       0.099524         2.7082 
  79   0.0000       0.121249         3.2993 
  80   0.0000       0.123641         3.3644 
  81   0.0000       0.123645         3.3645 
  82   0.0000       0.124247         3.3809 
  83   0.0000       0.132218         3.5978 
  84   0.0000       0.133007         3.6193 
  85   0.0000       0.133096         3.6217 
  86   0.0000       0.136334         3.7098 
  87   0.0000       0.136344         3.7101 
  88   0.0000       0.165810         4.5119 
  89   0.0000       0.166466         4.5298 
  90   0.0000       0.166475         4.5300 
  91   0.0000       0.180419         4.9094 
  92   0.0000       0.198861         5.4113 
  93   0.0000       0.202139         5.5005 
  94   0.0000       0.202145         5.5007 
  95   0.0000       0.217315         5.9134 
  96   0.0000       0.217923         5.9300 
  97   0.0000       0.217929         5.9302 
  98   0.0000       0.227809         6.1990 
  99   0.0000       0.227842         6.1999 
 100   0.0000       0.230314         6.2672 
 101   0.0000       0.230685         6.2773 
 102   0.0000       0.231965         6.3121 
 103   0.0000       0.232105         6.3159 
 104   0.0000       0.250421         6.8143 
 105   0.0000       0.252268         6.8645 
 106   0.0000       0.252522         6.8715 
 107   0.0000       0.253571         6.9000 
 108   0.0000       0.266849         7.2613 
 109   0.0000       0.266877         7.2621 
 110   0.0000       0.286322         7.7912 
 111   0.0000       0.287444         7.8217 
 112   0.0000       0.287561         7.8249 
 113   0.0000       0.291250         7.9253 
 114   0.0000       0.291270         7.9259 
 115   0.0000       0.327647         8.9157 
 116   0.0000       0.327822         8.9205 
 117   0.0000       0.327916         8.9231 
 118   0.0000       0.330781         9.0010 
 119   0.0000       0.330968         9.0061 
 120   0.0000       0.331149         9.0110 
 121   0.0000       0.331810         9.0290 
 122   0.0000       0.331961         9.0331 
 123   0.0000       0.334806         9.1105 
 124   0.0000       0.334932         9.1140 
 125   0.0000       0.335762         9.1365 
 126   0.0000       0.344891         9.3850 
 127   0.0000       0.350459         9.5365 
 128   0.0000       0.350744         9.5442 
 129   0.0000       0.354574         9.6484 
 130   0.0000       0.368732        10.0337 
 131   0.0000       0.422813        11.5053 
 132   0.0000       0.424154        11.5418 
 133   0.0000       0.424230        11.5439 
 134   0.0000       0.453054        12.3282 
 135   0.0000       0.454205        12.3596 
 136   0.0000       0.454419        12.3654 
 137   0.0000       0.464045        12.6273 
 138   0.0000       0.467102        12.7105 
 139   0.0000       0.467195        12.7130 
 140   0.0000       0.471397        12.8274 
 141   0.0000       0.487773        13.2730 
 142   0.0000       0.491209        13.3665 
 143   0.0000       0.491263        13.3679 
 144   0.0000       0.496924        13.5220 
 145   0.0000       0.497088        13.5265 
 146   0.0000       0.499429        13.5902 
 147   0.0000       0.499937        13.6040 
 148   0.0000       0.512131        13.9358 
 149   0.0000       0.512326        13.9411 
 150   0.0000       0.513465        13.9721 
 151   0.0000       0.520529        14.1643 
 152   0.0000       0.520995        14.1770 
 153   0.0000       0.521040        14.1782 
 154   0.0000       0.522551        14.2193 
 155   0.0000       0.522802        14.2262 
 156   0.0000       0.543749        14.7962 
 157   0.0000       0.544201        14.8085 
 158   0.0000       0.544233        14.8093 
 159   0.0000       0.545130        14.8337 
 160   0.0000       0.545176        14.8350 
 161   0.0000       0.546168        14.8620 
 162   0.0000       0.570644        15.5280 
 163   0.0000       0.570775        15.5316 
 164   0.0000       0.570786        15.5319 
 165   0.0000       0.609060        16.5734 
 166   0.0000       0.609123        16.5751 
 167   0.0000       0.638132        17.3644 
 168   0.0000       0.638212        17.3666 
 169   0.0000       0.640347        17.4247 
 170   0.0000       0.641761        17.4632 
 171   0.0000       0.642005        17.4699 
 172   0.0000       0.645344        17.5607 
 173   0.0000       0.645489        17.5646 
 174   0.0000       0.645544        17.5661 
 175   0.0000       0.660792        17.9811 
 176   0.0000       0.663299        18.0493 
 177   0.0000       0.663313        18.0497 
 178   0.0000       0.676298        18.4030 
 179   0.0000       0.676309        18.4033 
 180   0.0000       0.684776        18.6337 
 181   0.0000       0.685289        18.6476 
 182   0.0000       0.687435        18.7061 
 183   0.0000       0.706054        19.2127 
 184   0.0000       0.713609        19.4183 
 185   0.0000       0.714327        19.4378 
 186   0.0000       0.714524        19.4432 
 187   0.0000       0.718215        19.5436 
 188   0.0000       0.767170        20.8758 
 189   0.0000       0.767188        20.8762 
 190   0.0000       0.767365        20.8811 
 191   0.0000       0.768017        20.8988 
 192   0.0000       0.768052        20.8998 
 193   0.0000       0.811850        22.0916 
 194   0.0000       0.811894        22.0928 
 195   0.0000       0.824621        22.4391 
 196   0.0000       0.825957        22.4754 
 197   0.0000       0.826054        22.4781 
 198   0.0000       0.826782        22.4979 
 199   0.0000       0.833915        22.6920 
 200   0.0000       0.833933        22.6925 
 201   0.0000       0.835615        22.7383 
 202   0.0000       0.835924        22.7467 
 203   0.0000       0.839323        22.8391 
 204   0.0000       0.839515        22.8444 
 205   0.0000       0.840748        22.8779 
 206   0.0000       0.869667        23.6648 
 207   0.0000       0.870654        23.6917 
 208   0.0000       0.870890        23.6981 
 209   0.0000       0.902862        24.5681 
 210   0.0000       0.909421        24.7466 
 211   0.0000       0.910269        24.7697 
 212   0.0000       0.910393        24.7731 
 213   0.0000       0.922750        25.1093 
 214   0.0000       0.923033        25.1170 
 215   0.0000       0.923081        25.1183 
 216   0.0000       0.940150        25.5828 
 217   0.0000       0.940203        25.5842 
 218   0.0000       0.942301        25.6413 
 219   0.0000       0.955457        25.9993 
 220   0.0000       0.956931        26.0394 
 221   0.0000       0.957245        26.0480 
 222   0.0000       0.971156        26.4265 
 223   0.0000       0.971316        26.4309 
 224   0.0000       0.973208        26.4823 
 225   0.0000       0.977835        26.6082 
 226   0.0000       0.978080        26.6149 
 227   0.0000       0.999715        27.2036 
 228   0.0000       1.034069        28.1385 
 229   0.0000       1.034708        28.1558 
 230   0.0000       1.038171        28.2501 
 231   0.0000       1.043972        28.4079 
 232   0.0000       1.044000        28.4087 
 233   0.0000       1.046452        28.4754 
 234   0.0000       1.069384        29.0994 
 235   0.0000       1.072976        29.1972 
 236   0.0000       1.073787        29.2192 
 237   0.0000       1.137686        30.9580 
 238   0.0000       1.141834        31.0709 
 239   0.0000       1.141990        31.0751 
 240   0.0000       1.251919        34.0665 
 241   0.0000       1.252094        34.0712 
 242   0.0000       1.252397        34.0795 
 243   0.0000       1.253475        34.1088 
 244   0.0000       1.293170        35.1889 
 245   0.0000       1.293251        35.1911 
 246   0.0000       1.351635        36.7799 
 247   0.0000       1.351669        36.7808 
 248   0.0000       1.351806        36.7845 
 249   0.0000       1.351880        36.7865 
 250   0.0000       1.353972        36.8434 
 251   0.0000       1.355275        36.8789 
 252   0.0000       1.355369        36.8815 
 253   0.0000       1.358103        36.9559 
 254   0.0000       1.426434        38.8152 
 255   0.0000       1.430004        38.9124 
 256   0.0000       1.430262        38.9194 
 257   0.0000       1.465999        39.8919 
 258   0.0000       1.466018        39.8924 
 259   0.0000       1.689072        45.9620 
 260   0.0000       1.689083        45.9623 
 261   0.0000       1.690951        46.0131 
 262   0.0000       1.693634        46.0861 
 263   0.0000       1.694346        46.1055 
 264   0.0000       1.694733        46.1160 
 265   0.0000       1.719798        46.7981 
 266   0.0000       1.720025        46.8043 
 267   0.0000       1.720046        46.8048 
 268   0.0000       1.748028        47.5663 
 269   0.0000       1.748868        47.5891 
 270   0.0000       1.749281        47.6004 
 271   0.0000       1.749949        47.6185 
 272   0.0000       1.752143        47.6782 
 273   0.0000       1.761715        47.9387 
 274   0.0000       1.761748        47.9396 
 275   0.0000       1.777860        48.3780 
 276   0.0000       1.777953        48.3806 
 277   0.0000       1.822311        49.5876 
 278   0.0000       1.822997        49.6063 
 279   0.0000       1.825301        49.6690 
 280   0.0000       1.826107        49.6909 
 281   0.0000       1.828888        49.7666 
 282   0.0000       1.829198        49.7750 
 283   0.0000       1.835578        49.9486 
 284   0.0000       1.854519        50.4640 
 285   0.0000       1.854667        50.4681 
 286   0.0000       1.857588        50.5475 
 287   0.0000       1.857979        50.5582 
 288   0.0000       1.909645        51.9641 
 289   0.0000       1.909739        51.9666 
 290   0.0000       1.933681        52.6181 
 291   0.0000       1.935988        52.6809 
 292   0.0000       1.936976        52.7078 
 293   0.0000       1.999730        54.4154 
 294   0.0000       1.999916        54.4205 
 295   0.0000       2.078320        56.5540 
 296   0.0000       2.078361        56.5551 
 297   0.0000       2.080486        56.6129 
 298   0.0000       2.095079        57.0100 
 299   0.0000       2.151855        58.5549 
 300   0.0000       2.151865        58.5552 
 301   0.0000       2.154953        58.6392 
 302   0.0000       2.182438        59.3872 
 303   0.0000       2.184850        59.4528 
 304   0.0000       2.185159        59.4612 
 305   0.0000       2.194184        59.7068 
 306   0.0000       2.194848        59.7249 
 307   0.0000       2.195056        59.7305 
 308   0.0000       2.236013        60.8450 
 309   0.0000       2.236087        60.8470 
 310   0.0000       2.349768        63.9404 
 311   0.0000       2.395107        65.1742 
 312   0.0000       2.395747        65.1916 
 313   0.0000       2.395993        65.1983 
 314   0.0000       2.417432        65.7817 
 315   0.0000       2.417463        65.7825 
 316   0.0000       2.448796        66.6351 
 317   0.0000       2.492492        67.8242 
 318   0.0000       2.493620        67.8549 
 319   0.0000       2.493777        67.8591 
 320   0.0000       2.630968        71.5923 
 321   0.0000       2.630993        71.5930 
 322   0.0000       2.631012        71.5935 
 323   0.0000       2.663302        72.4721 
 324   0.0000       2.663533        72.4784 
 325   0.0000       2.664178        72.4960 
 326   0.0000       2.666841        72.5684 
 327   0.0000       2.667008        72.5730 
 328   0.0000       2.667412        72.5840 
 329   0.0000       2.718168        73.9651 
 330   0.0000       2.718184        73.9656 
 331   0.0000       2.718307        73.9689 
 332   0.0000       2.792108        75.9771 
 333   0.0000       2.792208        75.9798 
 334   0.0000       2.792319        75.9829 
 335   0.0000       2.806624        76.3721 
 336   0.0000       2.806704        76.3743 
 337   0.0000       2.837965        77.2249 
 338   0.0000       2.879409        78.3527 
 339   0.0000       2.879433        78.3534 
 340   0.0000       2.879726        78.3613 
 341   0.0000       2.891816        78.6903 
 342   0.0000       2.891844        78.6911 
 343   0.0000       2.893532        78.7370 
 344   0.0000       2.901670        78.9585 
 345   0.0000       2.950394        80.2843 
 346   0.0000       2.952523        80.3422 
 347   0.0000       2.952940        80.3536 
 348   0.0000       2.953115        80.3584 
 349   0.0000       2.953448        80.3674 
 350   0.0000       2.955217        80.4156 
 351   0.0000       2.970644        80.8353 
 352   0.0000       2.972064        80.8740 
 353   0.0000       2.972364        80.8821 
 354   0.0000       3.021981        82.2323 
 355   0.0000       3.022009        82.2330 
 356   0.0000       3.046112        82.8889 
 357   0.0000       3.054911        83.1284 
 358   0.0000       3.054977        83.1302 
 359   0.0000       3.070519        83.5531 
 360   0.0000       3.070777        83.5601 
 361   0.0000       3.070868        83.5626 
 362   0.0000       3.106720        84.5381 
 363   0.0000       3.110850        84.6505 
 364   0.0000       3.111178        84.6595 
 365   0.0000       3.111590        84.6707 
 366   0.0000       3.169444        86.2449 
 367   0.0000       3.171814        86.3094 
 368   0.0000       3.172379        86.3248 
 369   0.0000       3.176136        86.4270 
 370   0.0000       3.176463        86.4360 
 371   0.0000       3.178682        86.4963 
 372   0.0000       3.220362        87.6305 
 373   0.0000       3.220875        87.6445 
 374   0.0000       3.221585        87.6638 
 375   0.0000       3.240965        88.1911 
 376   0.0000       3.240998        88.1921 
 377   0.0000       3.243604        88.2630 
 378   0.0000       3.310541        90.0844 
 379   0.0000       3.311071        90.0988 
 380   0.0000       3.311175        90.1017 
 381   0.0000       3.389352        92.2290 
 382   0.0000       3.389368        92.2294 
 383   0.0000       3.396937        92.4353 
 384   0.0000       3.406322        92.6907 
 385   0.0000       3.406412        92.6932 
 386   0.0000       3.453004        93.9610 
 387   0.0000       3.453121        93.9642 
 388   0.0000       3.453172        93.9656 
 389   0.0000       3.565110        97.0116 
 390   0.0000       3.615488        98.3824 
 391   0.0000       3.615511        98.3830 
 392   0.0000       3.655141        99.4614 
 393   0.0000       3.655211        99.4633 
 394   0.0000       3.657904        99.5366 
 395   0.0000       3.704708       100.8102 
 396   0.0000       3.707568       100.8880 
 397   0.0000       3.707728       100.8924 
 398   0.0000       3.709250       100.9338 
 399   0.0000       3.709830       100.9496 
 400   0.0000       3.713239       101.0424 
 401   0.0000       3.722063       101.2825 
 402   0.0000       3.724833       101.3579 
 403   0.0000       3.725069       101.3643 
 404   0.0000       4.091190       111.3269 
 405   0.0000       4.188915       113.9862 
 406   0.0000       4.188956       113.9873 
 407   0.0000       4.312143       117.3394 
 408   0.0000       4.312338       117.3447 
 409   0.0000       4.312713       117.3549 
 410   0.0000       4.403150       119.8158 
 411   0.0000       4.403200       119.8172 
 412   0.0000       4.405021       119.8667 
 413   0.0000       4.490018       122.1796 
 414   0.0000       4.490421       122.1906 
 415   0.0000       4.490696       122.1981 
 416   0.0000       5.075077       138.0999 
 417   0.0000       5.075089       138.1002 
 418   0.0000       5.075135       138.1014 
 419   0.0000       5.075210       138.1035 
 420   0.0000       5.075223       138.1038 
 421   0.0000       5.075251       138.1046 
 422   0.0000       5.075554       138.1129 
 423   0.0000       5.075573       138.1134 
 424   0.0000       5.075585       138.1137 
 425   0.0000       5.076188       138.1301 
 426   0.0000       5.076198       138.1304 
 427   0.0000       5.076245       138.1316 
 428   0.0000       5.495482       149.5397 
 429   0.0000       5.495531       149.5410 
 430   0.0000       5.497935       149.6064 
 431   0.0000       5.499886       149.6595 
 432   0.0000       5.499937       149.6609 
 433   0.0000       5.499992       149.6624 
 434   0.0000       5.501945       149.7155 
 435   0.0000       5.501985       149.7166 
 436   0.0000       5.502071       149.7190 
 437   0.0000       5.506881       149.8499 
 438   0.0000       5.522582       150.2771 
 439   0.0000       5.522640       150.2787 
 440   0.0000       6.203742       168.8124 
 441   0.0000       6.203774       168.8133 
 442   0.0000       6.205779       168.8678 
 443   0.0000       6.263740       170.4450 
 444   0.0000       6.265454       170.4917 
 445   0.0000       6.265512       170.4933 
 446   0.0000       6.270096       170.6180 
 447   0.0000       6.270212       170.6211 
 448   0.0000       6.272040       170.6709 
 449   0.0000       6.279664       170.8784 
 450   0.0000       6.281819       170.9370 
 451   0.0000       6.281994       170.9417 
 452   0.0000       6.374958       173.4714 
 453   0.0000       6.389409       173.8647 
 454   0.0000       6.389469       173.8663 
 455   0.0000       6.389512       173.8674 
 456   0.0000       6.400976       174.1794 
 457   0.0000       6.401031       174.1809 
 458   0.0000       6.403864       174.2580 
 459   0.0000       6.404102       174.2645 
 460   0.0000       6.404443       174.2737 
 461   0.0000       6.418815       174.6648 
 462   0.0000       6.418854       174.6659 
 463   0.0000       6.454707       175.6415 
 464   0.0000       6.578663       179.0145 
 465   0.0000       6.593083       179.4069 
 466   0.0000       6.593138       179.4084 
 467   0.0000       6.626376       180.3129 
 468   0.0000       6.626450       180.3149 
 469   0.0000       6.626482       180.3157 
 470   0.0000       6.775980       184.3838 
 471   0.0000       6.776330       184.3933 
 472   0.0000       6.777970       184.4379 
 473   0.0000       6.778513       184.4527 
 474   0.0000       6.779896       184.4903 
 475   0.0000       6.779937       184.4915 
 476   0.0000       6.821962       185.6350 
 477   0.0000       6.821991       185.6358 
 478   0.0000       6.823965       185.6895 
 479   0.0000       6.839888       186.1228 
 480   0.0000       6.841706       186.1723 
 481   0.0000       6.841810       186.1751 
 482   0.0000       7.162934       194.9133 
 483   0.0000       7.162937       194.9134 
 484   0.0000       7.163087       194.9175 
 485   0.0000       7.182414       195.4434 
 486   0.0000       7.182465       195.4448 
 487   0.0000       7.186061       195.5427 
 488   0.0000      22.740295       618.7949 
 489   0.0000      22.856345       621.9528 
 490   0.0000      22.856397       621.9542 
 491   0.0000      22.916989       623.6030 
 492   0.0000      22.918083       623.6327 
 493   0.0000      22.919213       623.6635 
 494   0.0000      44.009564      1197.5611 
 495   0.0000      44.010589      1197.5890 
 496   0.0000      44.011466      1197.6129 
 497   0.0000      44.093103      1199.8343 
 498   0.0000      44.243108      1203.9162 
 499   0.0000      44.243173      1203.9179 
 500   0.0000      46.577688      1267.4433 
 501   0.0000      46.598706      1268.0153 
 502   0.0000      46.610186      1268.3276 
 503   0.0000      79.807164      2171.6633 
 504   0.0000     741.764367     20184.4346 

                    ********************************
                    * MULLIKEN POPULATION ANALYSIS *
                    ********************************

-----------------------
MULLIKEN ATOMIC CHARGES
-----------------------
   0 Hf:    1.409293
   1 C :   -0.019939
   2 C :   -0.016432
   3 C :   -0.019865
   4 C :   -0.016546
   5 O :   -0.216465
   6 O :   -0.217379
   7 O :   -0.216336
   8 O :   -0.217257
   9 C :   -0.017453
  10 C :   -0.017505
  11 O :   -0.217039
  12 O :   -0.217076
Sum of atomic charges:   -0.0000000

--------------------------------
MULLIKEN REDUCED ORBITAL CHARGES
--------------------------------
  0 Hfs       :     2.436758  s :     2.436758
      pz      :     2.026594  p :     6.086670
      px      :     2.032559
      py      :     2.027516
      dz2     :     0.229522  d :     1.992316
      dxz     :     0.533438
      dyz     :     0.462001
      dx2y2   :     0.193524
      dxy     :     0.573830
      f0      :     0.022675  f :     0.074964
      f+1     :     0.009919
      f-1     :     0.009833
      f+2     :     0.002598
      f-2     :     0.000068
      f+3     :     0.014678
      f-3     :     0.015191
  1 C s       :     3.649027  s :     3.649027
      pz      :     0.653347  p :     2.231679
      px      :     0.926444
      py      :     0.651888
      dz2     :     0.005984  d :     0.123672
      dxz     :     0.051830
      dyz     :     0.005234
      dx2y2   :     0.008029
      dxy     :     0.052595
      f0      :     0.001971  f :     0.015561
      f+1     :     0.001885
      f-1     :     0.000319
      f+2     :     0.003361
      f-2     :     0.000140
      f+3     :     0.002828
      f-3     :     0.005057
  2 C s       :     3.646443  s :     3.646443
      pz      :     0.641832  p :     2.230403
      px      :     0.661025
      py      :     0.927546
      dz2     :     0.004669  d :     0.124021
      dxz     :     0.003180
      dyz     :     0.051814
      dx2y2   :     0.007634
      dxy     :     0.056723
      f0      :     0.002051  f :     0.015566
      f+1     :     0.000334
      f-1     :     0.001699
      f+2     :     0.003432
      f-2     :     0.000043
      f+3     :     0.005141
      f-3     :     0.002867
  3 C s       :     3.648956  s :     3.648956
      pz      :     0.653311  p :     2.231681
      px      :     0.926480
      py      :     0.651889
      dz2     :     0.005981  d :     0.123665
      dxz     :     0.051821
      dyz     :     0.005240
      dx2y2   :     0.008029
      dxy     :     0.052594
      f0      :     0.001971  f :     0.015563
      f+1     :     0.001885
      f-1     :     0.000319
      f+2     :     0.003361
      f-2     :     0.000140
      f+3     :     0.002829
      f-3     :     0.005058
  4 C s       :     3.646445  s :     3.646445
      pz      :     0.641831  p :     2.230491
      px      :     0.661023
      py      :     0.927636
      dz2     :     0.004680  d :     0.124044
      dxz     :     0.003181
      dyz     :     0.051812
      dx2y2   :     0.007644
      dxy     :     0.056727
      f0      :     0.002051  f :     0.015566
      f+1     :     0.000334
      f-1     :     0.001699
      f+2     :     0.003432
      f-2     :     0.000043
      f+3     :     0.005141
      f-3     :     0.002867
  5 O s       :     3.917030  s :     3.917030
      pz      :     1.466608  p :     4.247422
      px      :     1.479190
      py      :     1.301625
      dz2     :     0.002599  d :     0.050260
      dxz     :    -0.000020
      dyz     :     0.019601
      dx2y2   :     0.007977
      dxy     :     0.020104
      f0      :     0.000274  f :     0.001753
      f+1     :     0.000045
      f-1     :     0.000101
      f+2     :     0.000462
      f-2     :     0.000002
      f+3     :     0.000689
      f-3     :     0.000179
  6 O s       :     3.917761  s :     3.917761
      pz      :     1.471529  p :     4.247609
      px      :     1.303011
      py      :     1.473069
      dz2     :     0.002927  d :     0.050256
      dxz     :     0.019463
      dyz     :     0.000132
      dx2y2   :     0.008049
      dxy     :     0.019685
      f0      :     0.000259  f :     0.001753
      f+1     :     0.000138
      f-1     :     0.000043
      f+2     :     0.000442
      f-2     :     0.000017
      f+3     :     0.000178
      f-3     :     0.000677
  7 O s       :     3.916936  s :     3.916936
      pz      :     1.466598  p :     4.247387
      px      :     1.479187
      py      :     1.301602
      dz2     :     0.002598  d :     0.050260
      dxz     :    -0.000020
      dyz     :     0.019600
      dx2y2   :     0.007977
      dxy     :     0.020105
      f0      :     0.000274  f :     0.001753
      f+1     :     0.000045
      f-1     :     0.000101
      f+2     :     0.000462
      f-2     :     0.000002
      f+3     :     0.000689
      f-3     :     0.000179
  8 O s       :     3.917723  s :     3.917723
      pz      :     1.471480  p :     4.247518
      px      :     1.302995
      py      :     1.473044
      dz2     :     0.002928  d :     0.050264
      dxz     :     0.019464
      dyz     :     0.000132
      dx2y2   :     0.008054
      dxy     :     0.019686
      f0      :     0.000259  f :     0.001753
      f+1     :     0.000138
      f-1     :     0.000043
      f+2     :     0.000442
      f-2     :     0.000017
      f+3     :     0.000178
      f-3     :     0.000677
  9 C s       :     3.647272  s :     3.647272
      pz      :     0.925844  p :     2.230884
      px      :     0.656855
      py      :     0.648186
      dz2     :     0.010191  d :     0.123734
      dxz     :     0.053723
      dyz     :     0.054001
      dx2y2   :     0.003071
      dxy     :     0.002748
      f0      :     0.004569  f :     0.015563
      f+1     :     0.005324
      f-1     :     0.005372
      f+2     :     0.000142
      f-2     :     0.000150
      f+3     :     0.000003
      f-3     :     0.000004
 10 C s       :     3.647306  s :     3.647306
      pz      :     0.925825  p :     2.230900
      px      :     0.656893
      py      :     0.648182
      dz2     :     0.010190  d :     0.123737
      dxz     :     0.053736
      dyz     :     0.053999
      dx2y2   :     0.003070
      dxy     :     0.002742
      f0      :     0.004569  f :     0.015562
      f+1     :     0.005324
      f-1     :     0.005371
      f+2     :     0.000142
      f-2     :     0.000150
      f+3     :     0.000003
      f-3     :     0.000004
 11 O s       :     3.917442  s :     3.917442
      pz      :     1.302907  p :     4.247554
      px      :     1.473791
      py      :     1.470857
      dz2     :     0.010763  d :     0.050291
      dxz     :     0.019644
      dyz     :     0.019622
      dx2y2   :     0.000127
      dxy     :     0.000136
      f0      :     0.000299  f :     0.001753
      f+1     :     0.000699
      f-1     :     0.000722
      f+2     :     0.000016
      f-2     :     0.000016
      f+3     :     0.000000
      f-3     :     0.000000
 12 O s       :     3.917438  s :     3.917438
      pz      :     1.302904  p :     4.247598
      px      :     1.473834
      py      :     1.470860
      dz2     :     0.010760  d :     0.050286
      dxz     :     0.019644
      dyz     :     0.019621
      dx2y2   :     0.000127
      dxy     :     0.000135
      f0      :     0.000299  f :     0.001753
      f+1     :     0.000699
      f-1     :     0.000722
      f+2     :     0.000016
      f-2     :     0.000016
      f+3     :     0.000000
      f-3     :     0.000000


                     *******************************
                     * LOEWDIN POPULATION ANALYSIS *
                     *******************************

----------------------
LOEWDIN ATOMIC CHARGES
----------------------
   0 Hf:    0.579571
   1 C :   -0.189903
   2 C :   -0.189798
   3 C :   -0.189912
   4 C :   -0.189803
   5 O :    0.093356
   6 O :    0.093222
   7 O :    0.093373
   8 O :    0.093322
   9 C :   -0.189961
  10 C :   -0.189961
  11 O :    0.093276
  12 O :    0.093219

-------------------------------
LOEWDIN REDUCED ORBITAL CHARGES
-------------------------------
  0 Hfs       :     1.918217  s :     1.918217
      pz      :     2.139635  p :     6.418167
      px      :     2.139084
      py      :     2.139448
      dz2     :     0.635675  d :     2.884045
      dxz     :     0.555804
      dyz     :     0.477579
      dx2y2   :     0.631743
      dxy     :     0.583244
      f0      :     0.060522  f :     0.200001
      f+1     :     0.026624
      f-1     :     0.026119
      f+2     :     0.006656
      f-2     :     0.000181
      f+3     :     0.039324
      f-3     :     0.040575
  1 C s       :     3.036891  s :     3.036891
      pz      :     0.629130  p :     2.374586
      px      :     1.119279
      py      :     0.626177
      dz2     :     0.075427  d :     0.690410
      dxz     :     0.205118
      dyz     :     0.013815
      dx2y2   :     0.192952
      dxy     :     0.203098
      f0      :     0.010974  f :     0.088016
      f+1     :     0.011037
      f-1     :     0.001762
      f+2     :     0.018724
      f-2     :     0.000673
      f+3     :     0.016734
      f-3     :     0.028115
  2 C s       :     3.036910  s :     3.036910
      pz      :     0.619856  p :     2.374501
      px      :     0.632101
      py      :     1.122544
      dz2     :     0.073705  d :     0.690364
      dxz     :     0.009442
      dyz     :     0.200623
      dx2y2   :     0.194729
      dxy     :     0.211865
      f0      :     0.011421  f :     0.088023
      f+1     :     0.001899
      f-1     :     0.010082
      f+2     :     0.018871
      f-2     :     0.000147
      f+3     :     0.028668
      f-3     :     0.016934
  3 C s       :     3.036872  s :     3.036872
      pz      :     0.629109  p :     2.374617
      px      :     1.119314
      py      :     0.626194
      dz2     :     0.075425  d :     0.690393
      dxz     :     0.205091
      dyz     :     0.013825
      dx2y2   :     0.192948
      dxy     :     0.203104
      f0      :     0.010976  f :     0.088030
      f+1     :     0.011037
      f-1     :     0.001762
      f+2     :     0.018726
      f-2     :     0.000674
      f+3     :     0.016736
      f-3     :     0.028119
  4 C s       :     3.036905  s :     3.036905
      pz      :     0.619846  p :     2.374508
      px      :     0.632108
      py      :     1.122553
      dz2     :     0.073705  d :     0.690366
      dxz     :     0.009443
      dyz     :     0.200633
      dx2y2   :     0.194730
      dxy     :     0.211855
      f0      :     0.011422  f :     0.088025
      f+1     :     0.001899
      f-1     :     0.010082
      f+2     :     0.018872
      f-2     :     0.000147
      f+3     :     0.028670
      f-3     :     0.016933
  5 O s       :     3.403252  s :     3.403252
      pz      :     1.321505  p :     4.288921
      px      :     1.332982
      py      :     1.634434
      dz2     :     0.030384  d :     0.207328
      dxz     :     0.000053
[...]
     17       0.389324   0.187297  -0.300112   0.024234  -0.158028  -0.021647
     18      -0.118464   0.011849   0.033541  -0.252747  -0.166868  -0.303139
     19       0.130352  -0.235335  -0.293828  -0.102942  -0.092847  -0.057946
     20       0.066974   0.316763   0.062657  -0.108292  -0.051639  -0.063626
     21       0.474484   0.116581   0.376186  -0.010913  -0.142345  -0.018465
     22      -0.037306  -0.057748  -0.015571   0.015642  -0.266278   0.007134
     23       0.348110  -0.218921   0.304847  -0.023790   0.158044  -0.024329
     24      -0.119623   0.000960  -0.039300   0.250660   0.164156  -0.304387
     25       0.155379   0.235179   0.309011   0.102375   0.092420  -0.059608
     26       0.048194  -0.341090  -0.067051   0.107829   0.050989  -0.063695
     27      -0.009694  -0.162438   0.014673   0.142081  -0.021722   0.024513
     28      -0.043272  -0.118608   0.136618  -0.138449   0.126818  -0.026877
     29      -0.093806   0.029937   0.026528  -0.353872   0.173632  -0.376817
     30       0.001341   0.156038  -0.013067  -0.142426   0.022200   0.023868
     31      -0.022362   0.116653  -0.134624   0.139637  -0.127422  -0.024383
     32      -0.093667  -0.017363  -0.026762   0.355555  -0.175924  -0.376275
     33       0.076046  -0.351990   0.036540  -0.155208   0.058109  -0.122577
     34      -0.082911  -0.255938   0.289443   0.126458  -0.086289   0.082166
     35      -0.118172   0.050509   0.042959  -0.243572   0.121755  -0.322629
     36       0.099564   0.326316  -0.029436   0.155798  -0.058991  -0.122182
     37      -0.038189   0.250990  -0.281156  -0.127022   0.086831   0.080483
     38      -0.117158  -0.034338  -0.043312   0.245015  -0.123750  -0.323079
                 18         19         20         21         22         23    
      0      -0.084495   0.040042   0.000048   0.000402   0.000121   0.000019
      1      -0.098509  -0.102305  -0.000842  -0.000447  -0.000095  -0.000075
      2       0.083949  -0.047336   0.000175   0.000176   0.000049   0.000018
      3       0.299802  -0.216737  -0.160050   0.113316  -0.247999  -0.067396
      4      -0.047037  -0.054922  -0.215513   0.225417   0.009887  -0.275571
      5      -0.008973  -0.022516  -0.289852   0.107166  -0.153223   0.221362
      6      -0.048466   0.041685   0.054843  -0.285360  -0.190589   0.234671
      7       0.299715   0.384504  -0.011403  -0.148546  -0.239857  -0.091351
      8       0.063573  -0.034311   0.085884   0.328904   0.021584   0.253968
      9       0.301205  -0.218184   0.158709  -0.115649   0.247528   0.066910
     10      -0.048957  -0.056207   0.214550  -0.225317  -0.009602   0.275675
     11      -0.012780  -0.024854   0.289100  -0.106702   0.153047  -0.221128
     12      -0.047367   0.038699  -0.054733   0.285386   0.190186  -0.234543
     13       0.298986   0.383091   0.016765   0.151841   0.240530   0.091186
     14       0.065582  -0.030599  -0.085699  -0.328868  -0.021753  -0.254261
     15       0.083860   0.058110  -0.045327   0.091978   0.029553  -0.139178
     16       0.251178   0.378289  -0.016671  -0.278433  -0.282328  -0.090919
     17      -0.087448  -0.055603  -0.051740  -0.115067   0.052706  -0.104937
     18       0.284283  -0.225483  -0.213699   0.157514  -0.263065  -0.099431
     19       0.065460   0.001256   0.071974  -0.102718  -0.048882   0.121169
     20       0.014044   0.003637   0.141708  -0.035403   0.056588  -0.116415
     21       0.082785   0.058395   0.046352  -0.091676  -0.029695   0.139098
     22       0.250317   0.375464   0.021984   0.281487   0.282553   0.091854
     23      -0.088585  -0.057469   0.050612   0.114207  -0.053015   0.104885
     24       0.284719  -0.227375   0.212919  -0.160526   0.262502   0.099735
     25       0.067124   0.000934  -0.071234   0.102100   0.049358  -0.121077
     26       0.016223   0.004722  -0.141382   0.035024  -0.056393   0.116418
     27      -0.045947   0.062860  -0.313781  -0.073979   0.015853   0.286576
     28      -0.035782  -0.067449   0.259155   0.200349  -0.184516   0.206433
     29      -0.260204   0.195631  -0.106994  -0.070176   0.229868   0.056764
     30      -0.050150   0.058969   0.314664   0.074572  -0.015889  -0.286884
     31      -0.032321  -0.062042  -0.260306  -0.201263   0.184294  -0.206446
     32      -0.258201   0.194290   0.106390   0.069424  -0.230098  -0.056548
     33      -0.051158   0.031695   0.096617  -0.011066   0.079116  -0.112418
     34       0.070375  -0.004179  -0.080960  -0.088165   0.031186  -0.122534
     35      -0.240908   0.214007  -0.254376  -0.130141   0.261093   0.100299
     36      -0.048943   0.032639  -0.097137   0.010577  -0.079082   0.112483
     37       0.068277  -0.006034   0.081860   0.088855  -0.031382   0.122396
     38      -0.241337   0.210363   0.254103   0.129607  -0.261095  -0.100563
                 24         25         26         27         28         29    
      0       0.000554  -0.026943  -0.035127  -0.014977   0.001653  -0.001520
      1       0.000178   0.036942  -0.001961  -0.031147  -0.001054  -0.002533
      2       0.000539   0.034853  -0.024183   0.024324   0.002516   0.001634
      3       0.097182   0.030706   0.004519   0.003720   0.023410   0.016177
      4      -0.251892  -0.276361   0.330211   0.111418  -0.319638  -0.240058
      5      -0.284353  -0.290877   0.336899   0.152449   0.346604   0.099113
      6      -0.220533   0.208239  -0.016933   0.392773  -0.098998  -0.369840
      7       0.139078  -0.068246  -0.002322  -0.060298   0.025539   0.005593
      8       0.272424  -0.250167  -0.084230  -0.391328   0.084207  -0.377152
      9      -0.098380   0.032744  -0.002131   0.007830  -0.023407  -0.016278
     10       0.239969  -0.279353   0.372114   0.045781   0.279663   0.260362
     11       0.273385  -0.293196   0.299248   0.195743  -0.374499  -0.064020
     12       0.222027   0.206575  -0.004952   0.317733   0.128225   0.426903
     13      -0.139406  -0.067282  -0.009541  -0.056408  -0.029362  -0.014220
     14      -0.271213  -0.248424  -0.112396  -0.440728  -0.104352   0.307346
     15       0.089424  -0.085741   0.013237  -0.141512   0.023425   0.135782
     16       0.034152   0.036512   0.011983   0.111774  -0.014401   0.004473
     17      -0.107365   0.103198   0.038305   0.142190  -0.016861   0.137260
     18       0.042806  -0.035771   0.080831   0.031636  -0.001260  -0.016508
     19       0.095446   0.111641  -0.124457  -0.033554   0.123207   0.076342
     20       0.102253   0.119560  -0.126789  -0.063477  -0.120821  -0.047749
     21      -0.090193  -0.085173   0.010380  -0.115025  -0.034977  -0.156111
     22      -0.034394   0.036727   0.013588   0.109669   0.021376   0.013268
     23       0.106878   0.102476   0.046784   0.161289   0.023355  -0.111737
     24      -0.045756  -0.035348   0.079064   0.028470  -0.006387   0.022730
     25      -0.091051   0.112861  -0.140876  -0.010951  -0.107620  -0.082807
     26      -0.098070   0.120559  -0.113931  -0.080712   0.130861   0.033543
     27       0.246679   0.260220   0.239415  -0.229416  -0.386001   0.117193
     28      -0.245258  -0.273937  -0.366582   0.151698  -0.229486   0.286062
     29      -0.152780  -0.089786  -0.061502   0.040850   0.038557   0.008561
     30      -0.252411   0.260743   0.283401  -0.235753   0.334599  -0.148467
     31       0.253064  -0.275404  -0.318052   0.176994   0.286352  -0.267664
     32       0.153147  -0.089872  -0.061100   0.044099  -0.027534  -0.002477
     33      -0.102976  -0.103738  -0.077254   0.085534   0.131552  -0.054335
     34       0.095796   0.110483   0.137961  -0.049950   0.091914  -0.092140
     35      -0.023021   0.056535   0.092107  -0.063665  -0.032396  -0.015898
     36       0.104593  -0.103792  -0.092228   0.085126  -0.114154   0.066114
     37      -0.098593   0.110982   0.119307  -0.056657  -0.112531   0.086547
     38       0.020356   0.056510   0.095394  -0.067509   0.015587   0.007846
                 30         31         32         33         34         35    
      0       0.001811   0.021992  -0.046798  -0.000000   0.000000  -0.000036
      1      -0.000164   0.048662  -0.000249   0.000001  -0.000002  -0.000328
      2       0.001370  -0.027853  -0.037308  -0.000000  -0.000001   0.000100
      3      -0.017861   0.025201   0.003878   0.157844   0.427346  -0.084041
      4       0.281494  -0.359690  -0.132950   0.015595   0.050234  -0.008629
      5      -0.277990   0.313509   0.203513   0.010704   0.021131  -0.005647
      6       0.280244  -0.022590   0.427563  -0.073137  -0.009497  -0.085284
      7      -0.008762   0.013371  -0.014155  -0.443564  -0.076111  -0.514846
      8       0.233752   0.058692   0.353571   0.069827   0.014517   0.082432
      9      -0.018380   0.026013   0.004045  -0.158429  -0.430848  -0.084330
     10       0.281773  -0.359737  -0.132672  -0.016037  -0.051592  -0.008860
     11      -0.278190   0.313572   0.203720  -0.010771  -0.021460  -0.005695
     12       0.280425  -0.022643   0.428083   0.072575   0.009605  -0.084368
     13      -0.008202   0.013461  -0.013032   0.444315   0.077535  -0.514146
     14       0.233842   0.058661   0.353398  -0.070491  -0.014834   0.082952
     15      -0.095644   0.004785  -0.150743   0.053461   0.009260   0.062377
     16       0.003107  -0.000017   0.004587   0.333561   0.057149   0.389068
     17      -0.079798  -0.016644  -0.124789  -0.051490  -0.008746  -0.059852
     18       0.006542  -0.007256  -0.005941  -0.118602  -0.321413   0.064295
     19      -0.096369   0.124804   0.050315  -0.013292  -0.035810   0.006294
     20       0.095028  -0.112366  -0.068284  -0.005611  -0.015420   0.003595
     21      -0.095728   0.004791  -0.150855  -0.053038  -0.009344   0.061691
     22       0.002707   0.000028   0.004388  -0.334127  -0.058209   0.388540
     23      -0.079803  -0.016656  -0.124789   0.051981   0.008982  -0.060243
     24       0.006777  -0.007376  -0.006021   0.119039   0.324040   0.064507
     25      -0.096429   0.124862   0.050237   0.013616   0.036833   0.006469
     26       0.095085  -0.112388  -0.068350   0.005670   0.015672   0.003629
     27      -0.288673  -0.311450   0.229348  -0.067898   0.077575   0.041393
     28      -0.271224  -0.337212   0.150217   0.043518  -0.056605  -0.027063
     29       0.023710   0.017991  -0.029967  -0.284076   0.343179   0.173091
     30      -0.288462  -0.311265   0.229111   0.067720  -0.077093   0.041511
     31      -0.271070  -0.337237   0.150256  -0.043074   0.055923  -0.026943
     32       0.023948   0.018446  -0.030066   0.283163  -0.340986   0.173532
     33       0.098743   0.111373  -0.078459   0.048625  -0.058814  -0.030429
     34       0.092918   0.116881  -0.056246  -0.033446   0.040212   0.019776
     35      -0.007464  -0.008724   0.005489   0.213979  -0.258126  -0.131884
     36       0.098680   0.111342  -0.078384  -0.048485   0.058452  -0.030514
     37       0.092885   0.116842  -0.056256   0.033114  -0.039692   0.019686
     38      -0.007605  -0.008712   0.005544  -0.213295   0.256491  -0.132223
                 36         37         38    
      0      -0.000243  -0.000306   0.000001
      1      -0.000064   0.000175  -0.000001
      2      -0.000280   0.000279   0.000000
      3      -0.336326  -0.441611  -0.330137
      4      -0.039906  -0.051372  -0.036647
      5      -0.017317  -0.023668  -0.015712
      6      -0.013958   0.028740  -0.051716
      7      -0.093246   0.172434  -0.323186
      8       0.016152  -0.027443   0.049751
      9      -0.336182  -0.438088   0.329555
     10      -0.040664  -0.051951   0.037320
     11      -0.017434  -0.023667   0.015815
     12      -0.013999   0.028371   0.051225
     13      -0.094398   0.171563   0.323165
     14       0.016443  -0.027481  -0.050130
     15       0.010441  -0.021026   0.036912
     16       0.070047  -0.128023   0.232053
     17      -0.011565   0.020061  -0.035465
     18       0.255020   0.331651   0.237207
     19       0.028520   0.037104   0.026118
     20       0.011620   0.016258   0.011044
     21       0.010468  -0.020730  -0.036553
     22       0.070911  -0.127369  -0.232035
     23      -0.011782   0.020111   0.035741
     24       0.254900   0.329001  -0.236770
     25       0.029087   0.037555  -0.026607
     26       0.011714   0.016261  -0.011117
     27      -0.097922   0.068286   0.072645
     28       0.069349  -0.046697  -0.049693
     29      -0.423777   0.291151   0.319382
     30      -0.097989   0.068930  -0.072744
     31       0.068924  -0.046856   0.049418
     32      -0.423936   0.293958  -0.319764
     33       0.072388  -0.050231  -0.051931
     34      -0.050311   0.034118   0.035466
     35       0.320515  -0.218092  -0.229503
     36       0.072435  -0.050720   0.052007
     37      -0.049993   0.034215  -0.035268
     38       0.320648  -0.220200   0.229791


-----------
IR SPECTRUM
-----------

 Mode   freq       eps      Int      T**2         TX        TY        TZ
       cm**-1   L/(mol*cm) km/mol    a.u.
----------------------------------------------------------------------------
  6:     39.78   0.000279    1.41  0.002190  (-0.022816  0.024005  0.033067)
  7:     42.07   0.000211    1.07  0.001569  ( 0.026063  0.029624 -0.003429)
  8:     42.41   0.000216    1.09  0.001593  ( 0.023738 -0.016915  0.027260)
  9:     63.68   0.000126    0.64  0.000619  ( 0.021533  0.008760  0.008847)
 10:     63.83   0.000086    0.44  0.000421  ( 0.003005  0.015965 -0.012545)
 11:     63.84   0.000319    1.61  0.001560  (-0.008433 -0.031307  0.022559)
 12:     64.68   0.000289    1.46  0.001394  (-0.030375 -0.003214 -0.021474)
 13:     64.92   0.000001    0.01  0.000006  ( 0.001934  0.000083  0.001494)
 14:     65.55   0.000000    0.00  0.000001  (-0.000625 -0.000684  0.000036)
 15:    284.36   0.000000    0.00  0.000000  (-0.000213 -0.000208  0.000210)
 16:    285.41   0.000000    0.00  0.000000  (-0.000332  0.000046 -0.000249)
 17:    296.69   0.010139   51.24  0.010664  (-0.076332  0.005293 -0.069350)
 18:    298.12   0.009544   48.23  0.009991  ( 0.051802  0.068864 -0.050645)
 19:    301.33   0.003676   18.58  0.003807  (-0.015941  0.056727  0.018304)
 20:    302.35   0.000000    0.00  0.000000  ( 0.000021  0.000520 -0.000228)
 21:    302.62   0.000000    0.00  0.000000  (-0.000234  0.000305 -0.000168)
 22:    328.98   0.000000    0.00  0.000000  (-0.000026  0.000074 -0.000037)
 23:    329.18   0.000000    0.00  0.000000  (-0.000054 -0.000046  0.000029)
 24:    368.00   0.000000    0.00  0.000000  ( 0.000084 -0.000083 -0.000041)
 25:    373.31   0.002119   10.71  0.001771  ( 0.021893 -0.024324 -0.026461)
 26:    380.00   0.000155    0.78  0.000127  (-0.008666 -0.001555 -0.007031)
 27:    380.81   0.000175    0.89  0.000144  (-0.001821 -0.011315  0.003510)
 28:    381.64   0.000001    0.00  0.000001  ( 0.000490 -0.000369  0.000591)
 29:    382.23   0.000001    0.01  0.000001  (-0.000303 -0.000922  0.000211)
 30:    474.52   0.000015    0.08  0.000010  (-0.002384  0.000213 -0.002042)
 31:    491.11   0.005296   26.76  0.003365  (-0.020961 -0.047166  0.026482)
 32:    491.46   0.005469   27.64  0.003472  ( 0.046046  0.000415  0.036769)
 33:   2019.21   0.000001    0.01  0.000000  (-0.000246  0.000186 -0.000322)
 34:   2019.88   0.000005    0.03  0.000001  (-0.000754  0.000059  0.000468)
 35:   2035.89   0.578006  2921.01  0.088597  (-0.057597 -0.268186  0.115569)
 36:   2036.38   0.584246  2952.54  0.089532  (-0.213073 -0.034253 -0.207265)
 37:   2037.30   0.332416  1679.89  0.050918  (-0.176507  0.050529  0.131186)
 38:   2147.62   0.000000    0.00  0.000000  (-0.000171  0.000021 -0.000096)

* The epsilon (eps) is given for a Dirac delta lineshape.
** The dipole moment derivative (T) already includes vibrational overlap.

The first frequency considered to be a vibration is 6
The total number of vibrations considered is 33


--------------------------
THERMOCHEMISTRY AT 298.15K
--------------------------

Temperature         ... 298.15 K
Pressure            ... 1.00 atm
Total Mass          ... 346.55 AMU

Throughout the following assumptions are being made:
  (1) The electronic state is orbitally nondegenerate
  (2) There are no thermally accessible electronically excited states
  (3) Hindered rotations indicated by low frequency modes are not
      treated as such but are treated as vibrations and this may
      cause some error
  (4) All equations used are the standard statistical mechanics
      equations for an ideal gas
  (5) All vibrations are strictly harmonic

freq.      39.78  E(vib)   ...       0.54 
freq.      42.07  E(vib)   ...       0.53 
freq.      42.41  E(vib)   ...       0.53 
freq.      63.68  E(vib)   ...       0.51 
freq.      63.83  E(vib)   ...       0.51 
freq.      63.84  E(vib)   ...       0.51 
freq.      64.68  E(vib)   ...       0.50 
freq.      64.92  E(vib)   ...       0.50 
freq.      65.55  E(vib)   ...       0.50 
freq.     284.36  E(vib)   ...       0.28 
freq.     285.41  E(vib)   ...       0.28 
freq.     296.69  E(vib)   ...       0.27 
freq.     298.12  E(vib)   ...       0.27 
freq.     301.33  E(vib)   ...       0.26 
freq.     302.35  E(vib)   ...       0.26 
freq.     302.62  E(vib)   ...       0.26 
freq.     328.98  E(vib)   ...       0.24 
freq.     329.18  E(vib)   ...       0.24 
freq.     368.00  E(vib)   ...       0.21 
freq.     373.31  E(vib)   ...       0.21 
freq.     380.00  E(vib)   ...       0.21 
freq.     380.81  E(vib)   ...       0.21 
freq.     381.64  E(vib)   ...       0.21 
freq.     382.23  E(vib)   ...       0.21 
freq.     474.52  E(vib)   ...       0.15 
freq.     491.11  E(vib)   ...       0.14 
freq.     491.46  E(vib)   ...       0.14 
freq.    2019.21  E(vib)   ...       0.00 
freq.    2019.88  E(vib)   ...       0.00 
freq.    2035.89  E(vib)   ...       0.00 
freq.    2036.38  E(vib)   ...       0.00 
freq.    2037.30  E(vib)   ...       0.00 
freq.    2147.62  E(vib)   ...       0.00 

------------
INNER ENERGY
------------

The inner energy is: U= E(el) + E(ZPE) + E(vib) + E(rot) + E(trans)
    E(el)   - is the total energy from the electronic structure calculation
              = E(kin-el) + E(nuc-el) + E(el-el) + E(nuc-nuc)
    E(ZPE)  - the the zero temperature vibrational energy from the frequency calculation
    E(vib)  - the the finite temperature correction to E(ZPE) due to population
              of excited vibrational states
    E(rot)  - is the rotational thermal energy
    E(trans)- is the translational thermal energy

Summary of contributions to the inner energy U:
Electronic energy                ...   -727.96374046 Eh
Zero point energy                ...      0.04387555 Eh      27.53 kcal/mol
Thermal vibrational correction   ...      0.01383634 Eh       8.68 kcal/mol
Thermal rotational correction    ...      0.00141627 Eh       0.89 kcal/mol
Thermal translational correction ...      0.00141627 Eh       0.89 kcal/mol
-----------------------------------------------------------------------
Total thermal energy                   -727.90319602 Eh


Summary of corrections to the electronic energy:
(perhaps to be used in another calculation)
Total thermal correction                  0.01666889 Eh      10.46 kcal/mol
Non-thermal (ZPE) correction              0.04387555 Eh      27.53 kcal/mol
-----------------------------------------------------------------------
Total correction                          0.06054444 Eh      37.99 kcal/mol


--------
ENTHALPY
--------

The enthalpy is H = U + kB*T
                kB is Boltzmann's constant
Total free energy                 ...   -727.90319602 Eh 
Thermal Enthalpy correction       ...      0.00094421 Eh       0.59 kcal/mol
-----------------------------------------------------------------------
Total Enthalpy                    ...   -727.90225181 Eh

[file orca_tools/Tool-Linalg/qcrdiag2.cpp, line 2737]: Diagonalization failed with error code: -5 !

