
                                 *****************
                                 * O   R   C   A *
                                 *****************

                                            #,                                       
                                            ###                                      
                                            ####                                     
                                            #####                                    
                                            ######                                   
                                           ########,                                 
                                     ,,################,,,,,                         
                               ,,#################################,,                 
                          ,,##########################################,,             
                       ,#########################################, ''#####,          
                    ,#############################################,,   '####,        
                  ,##################################################,,,,####,       
                ,###########''''           ''''###############################       
              ,#####''   ,,,,##########,,,,          '''####'''          '####       
            ,##' ,,,,###########################,,,                        '##       
           ' ,,###''''                  '''############,,,                           
         ,,##''                                '''############,,,,        ,,,,,,###''
      ,#''                                            '''#######################'''  
     '                                                          ''''####''''         
             ,#######,   #######,   ,#######,      ##                                
            ,#'     '#,  ##    ##  ,#'     '#,    #''#        ######   ,####,        
            ##       ##  ##   ,#'  ##            #'  '#       #        #'  '#        
            ##       ##  #######   ##           ,######,      #####,   #    #        
            '#,     ,#'  ##    ##  '#,     ,#' ,#      #,         ##   #,  ,#        
             '#######'   ##     ##  '#######'  #'      '#     #####' # '####'        



                  #######################################################
                  #                        -***-                        #
                  #          Department of theory and spectroscopy      #
                  #    Directorship and core code : Frank Neese         #
                  #        Max Planck Institute fuer Kohlenforschung    #
                  #                Kaiser Wilhelm Platz 1               #
                  #                 D-45470 Muelheim/Ruhr               #
                  #                      Germany                        #
                  #                                                     #
                  #                  All rights reserved                #
                  #                        -***-                        #
                  #######################################################



                         Program Version 5.0.4 -  RELEASE  -

 With contributions from (in alphabetic order):
   Daniel Aravena         : Magnetic Suceptibility
   Michael Atanasov       : Ab Initio Ligand Field Theory (pilot matlab implementation)
   Alexander A. Auer      : GIAO ZORA, VPT2 properties, NMR spectrum
   Ute Becker             : Parallelization
   Giovanni Bistoni       : ED, misc. LED, open-shell LED, HFLD
   Martin Brehm           : Molecular dynamics
   Dmytro Bykov           : SCF Hessian
   Vijay G. Chilkuri      : MRCI spin determinant printing, contributions to CSF-ICE
   Dipayan Datta          : RHF DLPNO-CCSD density
   Achintya Kumar Dutta   : EOM-CC, STEOM-CC
   Dmitry Ganyushin       : Spin-Orbit,Spin-Spin,Magnetic field MRCI
   Miquel Garcia          : C-PCM and meta-GGA Hessian, CC/C-PCM, Gaussian charge scheme
   Yang Guo               : DLPNO-NEVPT2, F12-NEVPT2, CIM, IAO-localization
   Andreas Hansen         : Spin unrestricted coupled pair/coupled cluster methods
   Benjamin Helmich-Paris : MC-RPA, TRAH-SCF, COSX integrals
   Lee Huntington         : MR-EOM, pCC
   Robert Izsak           : Overlap fitted RIJCOSX, COSX-SCS-MP3, EOM
   Marcus Kettner         : VPT2
   Christian Kollmar      : KDIIS, OOCD, Brueckner-CCSD(T), CCSD density, CASPT2, CASPT2-K
   Simone Kossmann        : Meta GGA functionals, TD-DFT gradient, OOMP2, MP2 Hessian
   Martin Krupicka        : Initial AUTO-CI
   Lucas Lang             : DCDCAS
   Marvin Lechner         : AUTO-CI (C++ implementation), FIC-MRCC
   Dagmar Lenk            : GEPOL surface, SMD
   Dimitrios Liakos       : Extrapolation schemes; Compound Job, initial MDCI parallelization
   Dimitrios Manganas     : Further ROCIS development; embedding schemes
   Dimitrios Pantazis     : SARC Basis sets
   Anastasios Papadopoulos: AUTO-CI, single reference methods and gradients
   Taras Petrenko         : DFT Hessian,TD-DFT gradient, ASA, ECA, R-Raman, ABS, FL, XAS/XES, NRVS
   Peter Pinski           : DLPNO-MP2, DLPNO-MP2 Gradient
   Christoph Reimann      : Effective Core Potentials
   Marius Retegan         : Local ZFS, SOC
   Christoph Riplinger    : Optimizer, TS searches, QM/MM, DLPNO-CCSD(T), (RO)-DLPNO pert. Triples
   Tobias Risthaus        : Range-separated hybrids, TD-DFT gradient, RPA, STAB
   Michael Roemelt        : Original ROCIS implementation
   Masaaki Saitow         : Open-shell DLPNO-CCSD energy and density
   Barbara Sandhoefer     : DKH picture change effects
   Avijit Sen             : IP-ROCIS
   Kantharuban Sivalingam : CASSCF convergence, NEVPT2, FIC-MRCI
   Bernardo de Souza      : ESD, SOC TD-DFT
   Georgi Stoychev        : AutoAux, RI-MP2 NMR, DLPNO-MP2 response
   Willem Van den Heuvel  : Paramagnetic NMR
   Boris Wezisla          : Elementary symmetry handling
   Frank Wennmohs         : Technical directorship


 We gratefully acknowledge several colleagues who have allowed us to
 interface, adapt or use parts of their codes:
   Stefan Grimme, W. Hujo, H. Kruse, P. Pracht,  : VdW corrections, initial TS optimization,
                  C. Bannwarth, S. Ehlert          DFT functionals, gCP, sTDA/sTD-DF
   Ed Valeev, F. Pavosevic, A. Kumar             : LibInt (2-el integral package), F12 methods
   Garnet Chan, S. Sharma, J. Yang, R. Olivares  : DMRG
   Ulf Ekstrom                                   : XCFun DFT Library
   Mihaly Kallay                                 : mrcc  (arbitrary order and MRCC methods)
   Jiri Pittner, Ondrej Demel                    : Mk-CCSD
   Frank Weinhold                                : gennbo (NPA and NBO analysis)
   Christopher J. Cramer and Donald G. Truhlar   : smd solvation model
   Lars Goerigk                                  : TD-DFT with DH, B97 family of functionals
   V. Asgeirsson, H. Jonsson                     : NEB implementation
   FAccTs GmbH                                   : IRC, NEB, NEB-TS, DLPNO-Multilevel, CI-OPT
                                                   MM, QMMM, 2- and 3-layer-ONIOM, Crystal-QMMM,
                                                   LR-CPCM, SF, NACMEs, symmetry and pop. for TD-DFT,
                                                   nearIR, NL-DFT gradient (VV10), updates on ESD,
                                                   ML-optimized integration grids
   S Lehtola, MJT Oliveira, MAL Marques          : LibXC Library
   Liviu Ungur et al                             : ANISO software


 Your calculation uses the libint2 library for the computation of 2-el integrals
 For citations please refer to: http://libint.valeyev.net

 Your ORCA version has been built with support for libXC version: 5.1.0
 For citations please refer to: https://tddft.org/programs/libxc/

 This ORCA versions uses:
   CBLAS   interface :  Fast vector & matrix operations
   LAPACKE interface :  Fast linear algebra routines
   Shared memory     :  Shared parallel matrices


================================================================================

cite the ECPs for Mo [Def2-ECP] as follows:
Ce-Yb(ecp-28): M. Dolg, H. Stoll, H.Preuss, J. Chem. Phys., 1989, 90, 1730-1734.
Y-Cd(ecp-28), Hf-Hg(ecp-46): D. Andrae,U. Haeussermann, M. Dolg, H. Stoll, H. Preuss, Theor. Chim. Acta, 1990, 77, 123-141.
In-Sb(ecp-28), Tl-Bi(ecp-46): B. Metz, H. Stoll, M. Dolg, J. Chem. Phys., 2000, 113, 2563-2569.
Te-Xe(ecp-28), Po-Rn(ecp-46): K. A. Peterson, D. Figgen, E. Goll, H. Stoll, M. Dolg, J. Chem. Phys., 2003, 119, 11113-11123.
Rb(ecp-28), Cs(ecp-46): T. Leininger, A. Nicklass, W. Kuechle, H. Stoll, M. Dolg, A. Bergner, Chem. Phys. Lett., 1996, 255, 274-280.
Sr(ecp-28), Ba(ecp-46): M. Kaupp, P. V. Schleyer, H. Stoll and H. Preuss, J. Chem. Phys., 1991, 94, 1360-1366.
La(ecp-46): M. Dolg, H. Stoll, A. Savin, H. Preuss, Theor. Chim. Acta, 1989, 75, 173-194.
Lu(ecp-28): X. Cao, M. Dolg, J. Chem. Phys., 2001, 115, 7348-7355.

ECP parameters for Mo [Def2-ECP] have been obtained from:
TURBOMOLE (7.0.2)

----- Orbital basis set information -----
Your calculation utilizes the basis: def2-TZVPD
   F. Weigend and R. Ahlrichs, Phys. Chem. Chem. Phys. 7, 3297 (2005).
   D. Rappoport and F. Furche, J. Chem. Phys. 133 134105 (2010).

----- AuxJ basis set information -----
Your calculation utilizes the auxiliary basis: def2/J
   F. Weigend, Phys. Chem. Chem. Phys. 8, 1057 (2006).

================================================================================
                                        WARNINGS
                       Please study these warnings very carefully!
================================================================================


WARNING: Geometry Optimization
  ===> : Switching off AutoStart
         For restart on a previous wavefunction, please use MOREAD

INFO   : the flag for use of the SHARK integral package has been found!

================================================================================
                                       INPUT FILE
================================================================================
NAME = MoCO5NH3.inp
|  1> !B3LYP def2-TZVPD OPT FREQ TightSCF PAL8

|  2> 

|  3> %scf

|  4>   MaxIter 300

|  5> end

|  6> 

|  7> * xyz 0 1 

|  8> O         -1.16324        3.48652        0.32805

|  9> O         -4.60072        0.47494       -0.44112

| 10> C         -1.22481        2.37302        0.15918

| 11> C         -3.47954        0.39807       -0.34548

| 12> Mo        -1.34203        0.25106       -0.16349

| 13> C         -1.55752       -0.05102        1.95254

| 14> O         -1.67065       -0.20959        3.06359

| 15> N         -1.12201        0.54907       -2.24326

| 16> C          0.79225        0.10018        0.03566

| 17> C         -1.46501       -1.87307       -0.46973

| 18> O          1.91269        0.02077        0.13993

| 19> O         -1.52953       -2.98771       -0.63055

| 20> H         -2.05490        0.70931       -2.68408

| 21> H         -0.51366        1.38043       -2.41513

| 22> H         -0.67734       -0.29196       -2.67408

| 23> **                         ****END OF INPUT****
================================================================================

                       *****************************
                       * Geometry Optimization Run *
                       *****************************

Geometry optimization settings:
Update method            Update   .... BFGS
Choice of coordinates    CoordSys .... Z-matrix Internals
Initial Hessian          InHess   .... Almoef's Model

Convergence Tolerances:
Energy Change            TolE     ....  5.0000e-06 Eh
Max. Gradient            TolMAXG  ....  3.0000e-04 Eh/bohr
RMS Gradient             TolRMSG  ....  1.0000e-04 Eh/bohr
Max. Displacement        TolMAXD  ....  4.0000e-03 bohr
RMS Displacement         TolRMSD  ....  2.0000e-03 bohr
Strict Convergence                ....  False
------------------------------------------------------------------------------
                        ORCA OPTIMIZATION COORDINATE SETUP
------------------------------------------------------------------------------

The optimization will be done in new redundant internal coordinates
Making redundant internal coordinates   ...  (new redundants) done
Evaluating the initial hessian          ...  (Almloef) done
Evaluating the coordinates              ...  done
Calculating the B-matrix                .... done
Calculating the G-matrix                .... done
Diagonalizing the G-matrix              .... done
The first mode is                       ....   15
The number of degrees of freedom        ....   39

    -----------------------------------------------------------------
                    Redundant Internal Coordinates


    -----------------------------------------------------------------
         Definition                    Initial Value    Approx d2E/dq
    -----------------------------------------------------------------
      1. B(C   2,O   0)                  1.1279         1.465605   
      2. B(C   3,O   1)                  1.1279         1.465818   
      3. B(Mo  4,C   2)                  2.1496         0.388193   
      4. B(Mo  4,C   3)                  2.1503         0.387163   
      5. B(C   5,Mo  4)                  2.1483         0.389955   
      6. B(O   6,C   5)                  1.1280         1.465164   
      7. B(N   7,Mo  4)                  2.1125         0.398378   
      8. B(C   8,Mo  4)                  2.1489         0.389188   
      9. B(C   9,Mo  4)                  2.1496         0.388105   
     10. B(O  10,C   8)                  1.1281         1.464713   
     11. B(O  11,C   9)                  1.1280         1.464989   
     12. B(H  12,N   7)                  1.0442         0.381667   
     13. B(H  13,N   7)                  1.0444         0.381328   
     14. B(H  14,N   7)                  1.0444         0.381408   
     15. L(O   0,C   2,Mo  4,C   5, 1) 180.0229         0.520926   
     16. L(O   0,C   2,Mo  4,C   5, 2) 180.0012         0.520926   
     17. L(O   1,C   3,Mo  4,C   5, 1) 180.0074         0.520680   
     18. L(O   1,C   3,Mo  4,C   5, 2) 179.9811         0.520680   
     19. A(C   2,Mo  4,C   8)           90.0710         0.461575   
     20. A(C   2,Mo  4,N   7)           90.1631         0.461365   
     21. A(C   3,Mo  4,N   7)           90.6053         0.461141   
     22. A(C   2,Mo  4,C   3)           89.9669         0.461135   
     23. A(C   2,Mo  4,C   5)           89.7951         0.461741   
     24. A(C   5,Mo  4,C   8)           89.9123         0.461957   
     25. A(C   8,Mo  4,C   9)           90.0369         0.461556   
     26. A(N   7,Mo  4,C   9)           90.2922         0.461346   
     27. A(C   3,Mo  4,C   5)           89.6142         0.461517   
     28. A(C   3,Mo  4,C   9)           89.9215         0.461116   
     29. A(C   5,Mo  4,C   9)           89.7501         0.461722   
     30. A(N   7,Mo  4,C   8)           89.8683         0.461581   
     31. L(Mo  4,C   5,O   6,C   3, 2) 180.0030         0.521339   
     32. L(Mo  4,C   5,O   6,C   3, 1) 180.0007         0.521339   
     33. A(H  13,N   7,H  14)          108.9740         0.291351   
     34. A(Mo  4,N   7,H  14)          109.6865         0.363505   
     35. A(H  12,N   7,H  13)          109.1945         0.291382   
     36. A(Mo  4,N   7,H  13)          109.5708         0.363492   
     37. A(Mo  4,N   7,H  12)          110.1348         0.363548   
     38. A(H  12,N   7,H  14)          109.2590         0.291392   
     39. L(Mo  4,C   8,O  10,C   5, 2) 179.9827         0.521117   
     40. L(Mo  4,C   8,O  10,C   5, 1) 180.0125         0.521117   
     41. L(Mo  4,C   9,O  11,C   5, 2) 180.0002         0.520863   
     42. L(Mo  4,C   9,O  11,C   5, 1) 180.0061         0.520863   
     43. D(H  12,N   7,Mo  4,C   3)      2.4335         0.002388   
     44. D(H  12,N   7,Mo  4,C   8)   -177.6057         0.002388   
     45. D(H  12,N   7,Mo  4,C   9)     92.3581         0.002388   
     46. D(H  13,N   7,Mo  4,C   2)     32.5967         0.002388   
     47. D(H  13,N   7,Mo  4,C   3)    122.5654         0.002388   
     48. D(H  13,N   7,Mo  4,C   8)    -57.4739         0.002388   
     49. D(H  13,N   7,Mo  4,C   9)   -147.5101         0.002388   
     50. D(H  14,N   7,Mo  4,C   2)    152.1803         0.002388   
     51. D(H  14,N   7,Mo  4,C   3)   -117.8510         0.002388   
     52. D(H  14,N   7,Mo  4,C   8)     62.1097         0.002388   
     53. D(H  14,N   7,Mo  4,C   9)    -27.9265         0.002388   
     54. D(H  12,N   7,Mo  4,C   2)    -87.5351         0.002388   
    -----------------------------------------------------------------

Number of atoms                         .... 15
Number of degrees of freedom            .... 54

         *************************************************************
         *                GEOMETRY OPTIMIZATION CYCLE   1            *
         *************************************************************
---------------------------------
CARTESIAN COORDINATES (ANGSTROEM)
---------------------------------
  O     -1.163240    3.486520    0.328050
  O     -4.600720    0.474940   -0.441120
  C     -1.224810    2.373020    0.159180
  C     -3.479540    0.398070   -0.345480
  Mo    -1.342030    0.251060   -0.163490
  C     -1.557520   -0.051020    1.952540
  O     -1.670650   -0.209590    3.063590
  N     -1.122010    0.549070   -2.243260
  C      0.792250    0.100180    0.035660
  C     -1.465010   -1.873070   -0.469730
  O      1.912690    0.020770    0.139930
  O     -1.529530   -2.987710   -0.630550
  H     -2.054900    0.709310   -2.684080
  H     -0.513660    1.380430   -2.415130
  H     -0.677340   -0.291960   -2.674080

----------------------------
CARTESIAN COORDINATES (A.U.)
----------------------------
  NO LB      ZA    FRAG     MASS         X           Y           Z
   0 O     8.0000    0    15.999   -2.198205    6.588568    0.619925
   1 O     8.0000    0    15.999   -8.694101    0.897507   -0.833596
   2 C     6.0000    0    12.011   -2.314555    4.484358    0.300807
   3 C     6.0000    0    12.011   -6.575378    0.752243   -0.652863
   4 Mo   14.0000*   0    95.940   -2.536069    0.474435   -0.308951
   5 C     6.0000    0    12.011   -2.943286   -0.096414    3.689766
   6 O     8.0000    0    15.999   -3.157071   -0.396068    5.789346
   7 N     7.0000    0    14.007   -2.120292    1.037592   -4.239147
   8 C     6.0000    0    12.011    1.497136    0.189313    0.067388
   9 C     6.0000    0    12.011   -2.768468   -3.539589   -0.887661
  10 O     8.0000    0    15.999    3.614460    0.039250    0.264429
  11 O     8.0000    0    15.999   -2.890393   -5.645954   -1.191567
  12 H     1.0000    0     1.008   -3.883198    1.340402   -5.072176
  13 H     1.0000    0     1.008   -0.970677    2.608635   -4.563934
  14 H     1.0000    0     1.008   -1.279987   -0.551724   -5.053279
* core charge reduced due to ECP

--------------------------------
INTERNAL COORDINATES (ANGSTROEM)
--------------------------------
 O      0   0   0     0.000000000000     0.00000000     0.00000000
 O      1   0   0     4.634382950912     0.00000000     0.00000000
 C      1   2   0     1.127914088838    45.01935530     0.00000000
 C      2   1   3     1.127874371949    44.99924504     0.00000000
 Mo     3   1   2     2.149551278500   179.97711482    92.54473783
 C      5   3   1     2.148318232339    89.79505647   177.82347512
 O      6   5   3     1.127995985941   179.99778970   342.63647600
 N      5   3   1     2.112501364118    90.16306218   358.04296575
 C      5   3   1     2.148854721776    90.07096791    87.91146763
 C      5   3   1     2.149612819765   179.53234714   191.24375141
 O      9   5   3     1.128079773154   179.98253773   225.43755735
 O     10   5   8     1.128028471449   179.99391219     1.15749607
 H      8   5   3     1.044166118058   110.13478629   272.46487773
 H      8   5   3     1.044408190795   109.57082174    32.59672978
 H      8   5   3     1.044350871211   109.68649432   152.18034186

---------------------------
INTERNAL COORDINATES (A.U.)
---------------------------
 O      0   0   0     0.000000000000     0.00000000     0.00000000
 O      1   0   0     8.757714576937     0.00000000     0.00000000
 C      1   2   0     2.131448730496    45.01935530     0.00000000
 C      2   1   3     2.131373676453    44.99924504     0.00000000
 Mo     3   1   2     4.062063227185   179.97711482    92.54473783
 C      5   3   1     4.059733107630    89.79505647   177.82347512
 O      6   5   3     2.131603493592   179.99778970   342.63647600
 N      5   3   1     3.992049035718    90.16306218   358.04296575
 C      5   3   1     4.060746925741    90.07096791    87.91146763
 C      5   3   1     4.062179523323   179.53234714   191.24375141
 O      9   5   3     2.131761828478   179.98253773   225.43755735
 O     10   5   8     2.131664882305   179.99391219     1.15749607
 H      8   5   3     1.973188001449   110.13478629   272.46487773
 H      8   5   3     1.973645452627   109.57082174    32.59672978
 H      8   5   3     1.973537134312   109.68649432   152.18034186

---------------------
BASIS SET INFORMATION
---------------------
There are 5 groups of distinct atoms

 Group   1 Type O   : 12s7p3d1f contracted to 6s4p3d1f pattern {621111/4111/111/1}
 Group   2 Type C   : 12s6p3d1f contracted to 6s3p3d1f pattern {621111/411/111/1}
 Group   3 Type Mo  : 7s7p5d1f contracted to 6s4p3d1f pattern {211111/4111/311/1}
 Group   4 Type N   : 12s6p3d1f contracted to 6s3p3d1f pattern {621111/411/111/1}
 Group   5 Type H   : 5s2p contracted to 3s2p pattern {311/11}

Atom   0O    basis set group =>   1
Atom   1O    basis set group =>   1
Atom   2C    basis set group =>   2
Atom   3C    basis set group =>   2
Atom   4Mo   basis set group =>   3
Atom   5C    basis set group =>   2
Atom   6O    basis set group =>   1
Atom   7N    basis set group =>   4
Atom   8C    basis set group =>   2
Atom   9C    basis set group =>   2
Atom  10O    basis set group =>   1
Atom  11O    basis set group =>   1
Atom  12H    basis set group =>   5
Atom  13H    basis set group =>   5
Atom  14H    basis set group =>   5
---------------------------------
AUXILIARY/J BASIS SET INFORMATION
---------------------------------
There are 5 groups of distinct atoms

 Group   1 Type O   : 12s5p4d2f1g contracted to 6s4p3d1f1g pattern {711111/2111/211/2/1}
 Group   2 Type C   : 12s5p4d2f1g contracted to 6s4p3d1f1g pattern {711111/2111/211/2/1}
 Group   3 Type Mo  : 11s5p5d3f3g contracted to 8s5p5d2f3g pattern {41111111/11111/11111/21/111}
 Group   4 Type N   : 12s5p4d2f1g contracted to 6s4p3d1f1g pattern {711111/2111/211/2/1}
 Group   5 Type H   : 5s2p1d contracted to 3s1p1d pattern {311/2/1}

Atom   0O    basis set group =>   1
Atom   1O    basis set group =>   1
Atom   2C    basis set group =>   2
Atom   3C    basis set group =>   2
Atom   4Mo   basis set group =>   3
Atom   5C    basis set group =>   2
Atom   6O    basis set group =>   1
Atom   7N    basis set group =>   4
Atom   8C    basis set group =>   2
Atom   9C    basis set group =>   2
Atom  10O    basis set group =>   1
Atom  11O    basis set group =>   1
Atom  12H    basis set group =>   5
Atom  13H    basis set group =>   5
Atom  14H    basis set group =>   5
-------------------------
ECP PARAMETER INFORMATION
-------------------------

 Group 1, Type Mo ECP Def2-ECP (replacing 28 core electrons, lmax=3)

Atom   4Mo   ECP group =>   1



           ************************************************************
           *        Program running with 8 parallel MPI-processes     *
           *              working on a common directory               *
           ************************************************************
------------------------------------------------------------------------------
                           ORCA GTO INTEGRAL CALCULATION
                           -- RI-GTO INTEGRALS CHOSEN --
------------------------------------------------------------------------------
------------------------------------------------------------------------------
                   ___                                                        
                  /   \      - P O W E R E D   B Y -                         
                 /     \                                                     
                 |  |  |   _    _      __       _____    __    __             
                 |  |  |  | |  | |    /  \     |  _  \  |  |  /  |          
                  \  \/   | |  | |   /    \    | | | |  |  | /  /          
                 / \  \   | |__| |  /  /\  \   | |_| |  |  |/  /          
                |  |  |   |  __  | /  /__\  \  |    /   |      \           
                |  |  |   | |  | | |   __   |  |    \   |  |\   \          
                \     /   | |  | | |  |  |  |  | |\  \  |  | \   \       
                 \___/    |_|  |_| |__|  |__|  |_| \__\ |__|  \__/        
                                                                              
                      - O R C A' S   B I G   F R I E N D -                    
                                      &                                       
                       - I N T E G R A L  F E E D E R -                       
                                                                              
 v1 FN, 2020, v2 2021                                                         
------------------------------------------------------------------------------


Reading SHARK input file MoCO5NH3.SHARKINP.tmp ... ok
----------------------
SHARK INTEGRAL PACKAGE
----------------------

Number of atoms                             ...     15
Number of basis functions                   ...    489
Number of shells                            ...    177
Maximum angular momentum                    ...      3
Integral batch strategy                     ... SHARK/LIBINT Hybrid
RI-J (if used) integral strategy            ... SPLIT-RIJ (Revised 2003 algorithm where possible)
Printlevel                                  ...      1
Contraction scheme used                     ... SEGMENTED contraction
Coulomb Range Separation                    ... NOT USED
Exchange Range Separation                   ... NOT USED
Finite Nucleus Model                        ... NOT USED
Auxiliary Coulomb fitting basis             ... AVAILABLE
   # of basis functions in Aux-J            ...    661
   # of shells in Aux-J                     ...    203
   Maximum angular momentum in Aux-J        ...      4
Auxiliary J/K fitting basis                 ... NOT available
Auxiliary Correlation fitting basis         ... NOT available
Auxiliary 'external' fitting basis          ... NOT available
Integral threshold                          ...     2.500000e-11
Primitive cut-off                           ...     2.500000e-12
Primitive pair pre-selection threshold      ...     2.500000e-12

Calculating pre-screening integrals         ... done (  0.1 sec) Dimension = 177
Organizing shell pair data                  ... done (  0.2 sec)
Shell pair information
Total number of shell pairs                 ...     15753
Shell pairs after pre-screening             ...     13719
Total number of primitive shell pairs       ...     41877
Primitive shell pairs kept                  ...     27114
          la=0 lb=0:   2709 shell pairs
          la=1 lb=0:   3493 shell pairs
          la=1 lb=1:   1112 shell pairs
          la=2 lb=0:   2499 shell pairs
          la=2 lb=1:   1584 shell pairs
          la=2 lb=2:    600 shell pairs
          la=3 lb=0:    753 shell pairs
          la=3 lb=1:    523 shell pairs
          la=3 lb=2:    383 shell pairs
          la=3 lb=3:     63 shell pairs

Calculating one electron integrals          ... done (  0.0 sec)
Calculating ECP integrals                   ... done (  1.2 sec)
Calculating RI/J V-Matrix + Cholesky decomp.... done (  0.1 sec)
Calculating Nuclear repulsion               ... done (  0.0 sec) ENN=    699.797766537319 Eh

SHARK setup successfully completed in   1.9 seconds

Maximum memory used throughout the entire GTOINT-calculation: 25.3 MB


           ************************************************************
           *        Program running with 8 parallel MPI-processes     *
           *              working on a common directory               *
           ************************************************************
-------------------------------------------------------------------------------
                                 ORCA SCF
-------------------------------------------------------------------------------

------------
SCF SETTINGS
------------
Hamiltonian:
 Density Functional     Method          .... DFT(GTOs)
 Exchange Functional    Exchange        .... B88
   X-Alpha parameter    XAlpha          ....  0.666667
   Becke's b parameter  XBeta           ....  0.004200
 Correlation Functional Correlation     .... LYP
 LDA part of GGA corr.  LDAOpt          .... VWN-5
 Gradients option       PostSCFGGA      .... off
 Hybrid DFT is turned on
   Fraction HF Exchange ScalHFX         ....  0.200000
   Scaling of DF-GGA-X  ScalDFX         ....  0.720000
   Scaling of DF-GGA-C  ScalDFC         ....  0.810000
   Scaling of DF-LDA-C  ScalLDAC        ....  1.000000
   Perturbative correction              ....  0.000000
   Density functional embedding theory  .... OFF
   NL short-range parameter             ....  4.800000
 RI-approximation to the Coulomb term is turned on
   Number of AuxJ basis functions       .... 661
   RIJ-COSX (HFX calculated with COS-X)).... on


General Settings:
 Integral files         IntName         .... MoCO5NH3
 Hartree-Fock type      HFTyp           .... RHF
 Total Charge           Charge          ....    0
 Multiplicity           Mult            ....    1
 Number of Electrons    NEL             ....   94
 Basis Dimension        Dim             ....  489
 Nuclear Repulsion      ENuc            ....    699.7977665373 Eh

Convergence Acceleration:
 DIIS                   CNVDIIS         .... on
   Start iteration      DIISMaxIt       ....    12
   Startup error        DIISStart       ....  0.200000
   # of expansion vecs  DIISMaxEq       ....     5
   Bias factor          DIISBfac        ....   1.050
   Max. coefficient     DIISMaxC        ....  10.000
 Trust-Rad. Augm. Hess. CNVTRAH         .... auto
   Auto Start mean grad. ratio tolernc. ....  1.125000
   Auto Start start iteration           ....    20
   Auto Start num. interpolation iter.  ....    10
   Max. Number of Micro iterations      ....    16
   Max. Number of Macro iterations      .... Maxiter - #DIIS iter
   Number of Davidson start vectors     ....     2
   Converg. threshold I  (grad. norm)   ....   1.000e-05
   Converg. threshold II (energy diff.) ....   1.000e-08
   Grad. Scal. Fac. for Micro threshold ....   0.100
   Minimum threshold for Micro iter.    ....   0.010
   NR start threshold (gradient norm)   ....   0.001
   Initial trust radius                 ....   0.400
   Minimum AH scaling param. (alpha)    ....   1.000
   Maximum AH scaling param. (alpha)    .... 1000.000
   Orbital update algorithm             .... Taylor
   White noise on init. David. guess    .... on
   Maximum white noise                  ....   0.010
   Quad. conv. algorithm                .... NR
 SOSCF                  CNVSOSCF        .... off
 Level Shifting         CNVShift        .... on
   Level shift para.    LevelShift      ....    0.2500
   Turn off err/grad.   ShiftErr        ....    0.0010
 Zerner damping         CNVZerner       .... off
 Static damping         CNVDamp         .... on
   Fraction old density DampFac         ....    0.7000
   Max. Damping (<1)    DampMax         ....    0.9800
   Min. Damping (>=0)   DampMin         ....    0.0000
   Turn off err/grad.   DampErr         ....    0.1000
 Fernandez-Rico         CNVRico         .... off

SCF Procedure:
 Maximum # iterations   MaxIter         ....   300
 SCF integral mode      SCFMode         .... Direct
   Integral package                     .... SHARK and LIBINT hybrid scheme
 Reset frequency        DirectResetFreq ....    20
 Integral Threshold     Thresh          ....  2.500e-11 Eh
 Primitive CutOff       TCut            ....  2.500e-12 Eh

Convergence Tolerance:
 Convergence Check Mode ConvCheckMode   .... Total+1el-Energy
 Convergence forced     ConvForced      .... 0
 Energy Change          TolE            ....  1.000e-08 Eh
 1-El. energy change                    ....  1.000e-05 Eh
 DIIS Error             TolErr          ....  5.000e-07


Diagonalization of the overlap matrix:
Smallest eigenvalue                        ... 7.241e-06
Time for diagonalization                   ...    0.073 sec
Threshold for overlap eigenvalues          ... 1.000e-08
Number of eigenvalues below threshold      ... 0
Time for construction of square roots      ...    0.125 sec
Total time needed                          ...    0.199 sec

Time for model grid setup =    0.153 sec

------------------------------
INITIAL GUESS: MODEL POTENTIAL
------------------------------
Loading Hartree-Fock densities                     ... done
  calling C:\orca_5_0_4\orca MoCO5NH3_atom42.inp > MoCO5NH3_atom42.out in order to generate an atomic fitting density for atom 4 (Mo with ECP) on-the-fly... 
    atom 4 (Mo), assumed electronic state with S=5: 1s2 2s2 2p6 3s2 3p6 4s2 3d10 4p6 5s2 4d4           ... done
Calculating cut-offs                               ... done
Initializing the effective Hamiltonian             ... done
Setting up the integral package (SHARK)            ... done
Starting the Coulomb interaction                   ... done (   0.2 sec)
Reading the grid                                   ... done
Mapping shells                                     ... done
Starting the XC term evaluation                    ... done (   0.3 sec)
  promolecular density results
     # of electrons  =    121.997685732
     EX              =   -193.782084676
     EC              =     -4.899993047
     EX+EC           =   -198.682077722
Transforming the Hamiltonian                       ... done (   0.1 sec)
Diagonalizing the Hamiltonian                      ... done (   0.1 sec)
Back transforming the eigenvectors                 ... done (   0.0 sec)
Now organizing SCF variables                       ... done
                      ------------------
                      INITIAL GUESS DONE (   3.6 sec)
                      ------------------
-------------------
DFT GRID GENERATION
-------------------

General Integration Accuracy     IntAcc      ... 4.388
Radial Grid Type                 RadialGrid  ... OptM3 with GC (2021)
Angular Grid (max. ang.)         AngularGrid ... 4 (Lebedev-302)
Angular grid pruning method      GridPruning ... 4 (adaptive)
Weight generation scheme         WeightScheme... Becke
Basis function cutoff            BFCut       ... 1.0000e-11
Integration weight cutoff        WCut        ... 1.0000e-14
Angular grids for H and He will be reduced by one unit
Partially contracted basis set               ... off
Rotationally invariant grid construction     ... off

Total number of grid points                  ...    90898
Total number of batches                      ...     1429
Average number of points per batch           ...       63
Average number of grid points per atom       ...     6060
Time for grid setup =    0.641 sec

--------------------
COSX GRID GENERATION
--------------------

GRIDX 1
-------
General Integration Accuracy     IntAcc      ... 3.816
Radial Grid Type                 RadialGrid  ... OptM3 with GC (2021)
Angular Grid (max. ang.)         AngularGrid ... 1 (Lebedev-50)
Angular grid pruning method      GridPruning ... 4 (adaptive)
Weight generation scheme         WeightScheme... Becke
Basis function cutoff            BFCut       ... 1.0000e-11
Integration weight cutoff        WCut        ... 1.0000e-14
Angular grids for H and He will be reduced by one unit
Partially contracted basis set               ... on
Rotationally invariant grid construction     ... off

Total number of grid points                  ...    11265
Total number of batches                      ...      183
Average number of points per batch           ...       61
Average number of grid points per atom       ...      751
UseSFitting                                  ... on

GRIDX 2
-------
General Integration Accuracy     IntAcc      ... 4.020
Radial Grid Type                 RadialGrid  ... OptM3 with GC (2021)
Angular Grid (max. ang.)         AngularGrid ... 2 (Lebedev-110)
Angular grid pruning method      GridPruning ... 4 (adaptive)
Weight generation scheme         WeightScheme... Becke
Basis function cutoff            BFCut       ... 1.0000e-11
Integration weight cutoff        WCut        ... 1.0000e-14
Angular grids for H and He will be reduced by one unit
Partially contracted basis set               ... on
Rotationally invariant grid construction     ... off

Total number of grid points                  ...    29185
Total number of batches                      ...      464
Average number of points per batch           ...       62
Average number of grid points per atom       ...     1946
UseSFitting                                  ... on

GRIDX 3
-------
General Integration Accuracy     IntAcc      ... 4.338
Radial Grid Type                 RadialGrid  ... OptM3 with GC (2021)
Angular Grid (max. ang.)         AngularGrid ... 3 (Lebedev-194)
Angular grid pruning method      GridPruning ... 4 (adaptive)
Weight generation scheme         WeightScheme... Becke
Basis function cutoff            BFCut       ... 1.0000e-11
Integration weight cutoff        WCut        ... 1.0000e-14
Angular grids for H and He will be reduced by one unit
Partially contracted basis set               ... on
Rotationally invariant grid construction     ... off

Total number of grid points                  ...    62889
Total number of batches                      ...      991
Average number of points per batch           ...       63
Average number of grid points per atom       ...     4193
UseSFitting                                  ... on

Time for X-Grid setup             =    1.646 sec

--------------
SCF ITERATIONS
--------------
ITER       Energy         Delta-E        Max-DP      RMS-DP      [F,P]     Damp
               ***  Starting incremental Fock matrix formation  ***
  0   -691.0536596469   0.000000000000 0.16578949  0.00111736  0.4341079 0.7000
  1   -691.2784827019  -0.224823055033 0.10910074  0.00069074  0.2793420 0.7000
                               ***Turning on DIIS***
  2   -691.3365469092  -0.058064207238 0.04407679  0.00032703  0.1818456 0.7000
  3   -691.3799799337  -0.043433024558 0.03541213  0.00020264  0.1275285 0.7000
  4   -691.4129726472  -0.032992713486 0.08204061  0.00041147  0.0929086 0.0000
  5   -691.4859977237  -0.073025076493 0.00612160  0.00009073  0.0083714 0.0000
  6   -691.4864344904  -0.000436766647 0.00386016  0.00003516  0.0043521 0.0000
  7   -691.4865776127  -0.000143122348 0.00106421  0.00001232  0.0018261 0.0000
  8   -691.4865887097  -0.000011097005 0.00192189  0.00001297  0.0003661 0.0000
               *** Restarting incremental Fock matrix formation ***
                                   *** Resetting DIIS ***
  9   -691.4866142651  -0.000025555402 0.00174388  0.00002091  0.0010777 0.0000
 10   -691.4866079009   0.000006364259 0.00090659  0.00000718  0.0018970 0.0000
 11   -691.4866156427  -0.000007741870 0.00038333  0.00000384  0.0007709 0.0000
 12   -691.4866172174  -0.000001574652 0.00028819  0.00000277  0.0000838 0.0000
 13   -691.4866172046   0.000000012734 0.00018123  0.00000132  0.0000581 0.0000
 14   -691.4866172260  -0.000000021369 0.00077949  0.00000406  0.0000063 0.0000
 15   -691.4866172235   0.000000002540 0.00022477  0.00000141  0.0000080 0.0000
 16   -691.4866172130   0.000000010429 0.00017031  0.00000097  0.0000017 0.0000
                 **** Energy Check signals convergence ****

               *****************************************************
               *                     SUCCESS                       *
               *           SCF CONVERGED AFTER  17 CYCLES          *
               *****************************************************

Old exchange energy                            =    -16.295304931 Eh
New exchange energy                            =    -16.295306071 Eh
Exchange energy change after final integration =     -0.000001140 Eh
Total energy after final integration           =   -691.486618346 Eh
Final COS-X integration done in                =    10.023 sec

----------------
TOTAL SCF ENERGY
----------------

Total Energy       :         -691.48661835 Eh          -18816.30749 eV

Components:
Nuclear Repulsion  :          699.79776654 Eh           19042.46533 eV
Electronic Energy  :        -1391.28438488 Eh          -37858.77282 eV
One Electron Energy:        -2358.62779819 Eh          -64181.52531 eV
Two Electron Energy:          967.34341330 Eh           26322.75250 eV
Max COSX asymmetry :            0.00000414 Eh               0.00011 eV

Virial components:
Potential Energy   :        -1335.77565797 Eh          -36348.30357 eV
Kinetic Energy     :          644.28903962 Eh           17531.99608 eV
Virial Ratio       :            2.07325529


DFT components:
N(Alpha)           :       46.999965850173 electrons
N(Beta)            :       46.999965850173 electrons
N(Total)           :       93.999931700347 electrons
E(X)               :      -65.181904227677 Eh       
E(C)               :       -3.859606167279 Eh       
E(XC)              :      -69.041510394956 Eh       
DFET-embed. en.    :        0.000000000000 Eh       

---------------
SCF CONVERGENCE
---------------

  Last Energy change         ...    6.6082e-09  Tolerance :   1.0000e-08
  Last MAX-Density change    ...    0.0000e+00  Tolerance :   1.0000e-07
  Last RMS-Density change    ...    0.0000e+00  Tolerance :   5.0000e-09
  Last DIIS Error            ...    9.0523e-07  Tolerance :   5.0000e-07

             **** THE GBW FILE WAS UPDATED (MoCO5NH3.gbw) ****
             **** DENSITY MoCO5NH3.scfp WAS UPDATED ****
             **** ENERGY FILE WAS UPDATED (MoCO5NH3.en.tmp) ****
             **** THE GBW FILE WAS UPDATED (MoCO5NH3.gbw) ****
             **** DENSITY MoCO5NH3.scfp WAS UPDATED ****
----------------
ORBITAL ENERGIES
----------------

  NO   OCC          E(Eh)            E(eV) 
   0   2.0000     -19.207149      -522.6531 
   1   2.0000     -19.206494      -522.6353 
   2   2.0000     -19.206382      -522.6322 
   3   2.0000     -19.205765      -522.6154 
   4   2.0000     -19.185201      -522.0559 
   5   2.0000     -14.388911      -391.5422 
   6   2.0000     -10.279699      -279.7248 
   7   2.0000     -10.279366      -279.7158 
   8   2.0000     -10.279296      -279.7139 
   9   2.0000     -10.279022      -279.7064 
  10   2.0000     -10.263129      -279.2739 
  11   2.0000      -2.540686       -69.1356 
  12   2.0000      -1.542619       -41.9768 
  13   2.0000      -1.542609       -41.9765 
  14   2.0000      -1.539676       -41.8967 
  15   2.0000      -1.148419       -31.2501 
  16   2.0000      -1.147741       -31.2316 
  17   2.0000      -1.147666       -31.2296 
  18   2.0000      -1.147018       -31.2119 
  19   2.0000      -1.127953       -30.6932 
  20   2.0000      -0.926303       -25.2060 
  21   2.0000      -0.575400       -15.6574 
  22   2.0000      -0.564012       -15.3476 
  23   2.0000      -0.562868       -15.3164 
  24   2.0000      -0.562551       -15.3078 
  25   2.0000      -0.545508       -14.8440 
  26   2.0000      -0.543290       -14.7837 
  27   2.0000      -0.542744       -14.7688 
  28   2.0000      -0.474017       -12.8986 
  29   2.0000      -0.472948       -12.8696 
  30   2.0000      -0.467527       -12.7220 
  31   2.0000      -0.466614       -12.6972 
  32   2.0000      -0.466398       -12.6913 
  33   2.0000      -0.465086       -12.6556 
  34   2.0000      -0.465080       -12.6555 
  35   2.0000      -0.463373       -12.6090 
  36   2.0000      -0.458912       -12.4876 
  37   2.0000      -0.445535       -12.1236 
  38   2.0000      -0.445532       -12.1235 
  39   2.0000      -0.443493       -12.0681 
  40   2.0000      -0.429618       -11.6905 
  41   2.0000      -0.399547       -10.8722 
  42   2.0000      -0.399516       -10.8714 
  43   2.0000      -0.376799       -10.2532 
  44   2.0000      -0.216050        -5.8790 
  45   2.0000      -0.199082        -5.4173 
  46   2.0000      -0.199010        -5.4153 
  47   0.0000      -0.071298        -1.9401 
  48   0.0000      -0.039898        -1.0857 
  49   0.0000      -0.039844        -1.0842 
  50   0.0000      -0.029376        -0.7994 
  51   0.0000      -0.021079        -0.5736 
  52   0.0000       0.007265         0.1977 
  53   0.0000       0.007272         0.1979 
  54   0.0000       0.010446         0.2842 
  55   0.0000       0.010888         0.2963 
  56   0.0000       0.015435         0.4200 
  57   0.0000       0.020067         0.5460 
  58   0.0000       0.027597         0.7510 
  59   0.0000       0.027666         0.7528 
  60   0.0000       0.031333         0.8526 
  61   0.0000       0.032032         0.8716 
  62   0.0000       0.044675         1.2157 
  63   0.0000       0.053833         1.4649 
  64   0.0000       0.054809         1.4914 
  65   0.0000       0.059949         1.6313 
  66   0.0000       0.072345         1.9686 
  67   0.0000       0.072649         1.9769 
  68   0.0000       0.077653         2.1130 
  69   0.0000       0.078422         2.1340 
  70   0.0000       0.083224         2.2646 
  71   0.0000       0.088302         2.4028 
  72   0.0000       0.088444         2.4067 
  73   0.0000       0.092139         2.5072 
  74   0.0000       0.094568         2.5733 
  75   0.0000       0.099244         2.7006 
  76   0.0000       0.120634         3.2826 
  77   0.0000       0.127136         3.4595 
  78   0.0000       0.131937         3.5902 
  79   0.0000       0.132439         3.6038 
  80   0.0000       0.133302         3.6273 
  81   0.0000       0.145339         3.9549 
  82   0.0000       0.145553         3.9607 
  83   0.0000       0.149764         4.0753 
  84   0.0000       0.167689         4.5630 
  85   0.0000       0.171384         4.6636 
  86   0.0000       0.176620         4.8061 
  87   0.0000       0.192698         5.2436 
  88   0.0000       0.194630         5.2962 
  89   0.0000       0.200573         5.4579 
  90   0.0000       0.206904         5.6301 
  91   0.0000       0.209158         5.6915 
  92   0.0000       0.223449         6.0803 
  93   0.0000       0.230176         6.2634 
  94   0.0000       0.241619         6.5748 
  95   0.0000       0.243605         6.6288 
  96   0.0000       0.249677         6.7940 
  97   0.0000       0.250690         6.8216 
  98   0.0000       0.261291         7.1101 
  99   0.0000       0.268122         7.2960 
 100   0.0000       0.268937         7.3181 
 101   0.0000       0.271596         7.3905 
 102   0.0000       0.275062         7.4848 
 103   0.0000       0.278193         7.5700 
 104   0.0000       0.279256         7.5989 
 105   0.0000       0.281301         7.6546 
 106   0.0000       0.284515         7.7421 
 107   0.0000       0.294065         8.0019 
 108   0.0000       0.303262         8.2522 
 109   0.0000       0.309077         8.4104 
 110   0.0000       0.309513         8.4223 
 111   0.0000       0.313041         8.5183 
 112   0.0000       0.322840         8.7849 
 113   0.0000       0.328950         8.9512 
 114   0.0000       0.345968         9.4143 
 115   0.0000       0.346633         9.4324 
 116   0.0000       0.348241         9.4761 
 117   0.0000       0.353496         9.6191 
 118   0.0000       0.355364         9.6699 
 119   0.0000       0.358388         9.7522 
 120   0.0000       0.359455         9.7813 
 121   0.0000       0.361587         9.8393 
 122   0.0000       0.363414         9.8890 
 123   0.0000       0.373220        10.1558 
 124   0.0000       0.380232        10.3466 
 125   0.0000       0.384038        10.4502 
 126   0.0000       0.392874        10.6907 
 127   0.0000       0.399599        10.8736 
 128   0.0000       0.401379        10.9221 
 129   0.0000       0.409100        11.1322 
 130   0.0000       0.419751        11.4220 
 131   0.0000       0.427298        11.6274 
 132   0.0000       0.443331        12.0636 
 133   0.0000       0.454147        12.3580 
 134   0.0000       0.460864        12.5407 
 135   0.0000       0.463353        12.6085 
 136   0.0000       0.490226        13.3397 
 137   0.0000       0.493240        13.4218 
 138   0.0000       0.501163        13.6373 
 139   0.0000       0.504701        13.7336 
 140   0.0000       0.506050        13.7703 
 141   0.0000       0.509419        13.8620 
 142   0.0000       0.518860        14.1189 
 143   0.0000       0.519697        14.1417 
 144   0.0000       0.522375        14.2145 
 145   0.0000       0.534867        14.5545 
 146   0.0000       0.537136        14.6162 
 147   0.0000       0.547404        14.8956 
 148   0.0000       0.548552        14.9269 
 149   0.0000       0.552213        15.0265 
 150   0.0000       0.561554        15.2807 
 151   0.0000       0.562032        15.2937 
 152   0.0000       0.563569        15.3355 
 153   0.0000       0.572714        15.5843 
 154   0.0000       0.573819        15.6144 
 155   0.0000       0.576298        15.6819 
 156   0.0000       0.579285        15.7631 
 157   0.0000       0.584768        15.9123 
 158   0.0000       0.594778        16.1847 
 159   0.0000       0.604408        16.4468 
 160   0.0000       0.604717        16.4552 
 161   0.0000       0.609880        16.5957 
 162   0.0000       0.627444        17.0736 
 163   0.0000       0.658034        17.9060 
 164   0.0000       0.659025        17.9330 
 165   0.0000       0.665079        18.0977 
 166   0.0000       0.672041        18.2872 
 167   0.0000       0.678250        18.4561 
 168   0.0000       0.678962        18.4755 
 169   0.0000       0.685829        18.6623 
 170   0.0000       0.691109        18.8060 
 171   0.0000       0.701175        19.0799 
 172   0.0000       0.708297        19.2738 
 173   0.0000       0.717578        19.5263 
 174   0.0000       0.719624        19.5820 
 175   0.0000       0.721627        19.6365 
 176   0.0000       0.724631        19.7182 
 177   0.0000       0.731094        19.8941 
 178   0.0000       0.733321        19.9547 
 179   0.0000       0.748574        20.3697 
 180   0.0000       0.749017        20.3818 
 181   0.0000       0.766124        20.8473 
 182   0.0000       0.767580        20.8869 
 183   0.0000       0.779625        21.2147 
 184   0.0000       0.787585        21.4313 
 185   0.0000       0.800011        21.7694 
 186   0.0000       0.805883        21.9292 
 187   0.0000       0.827468        22.5166 
 188   0.0000       0.835542        22.7362 
 189   0.0000       0.842714        22.9314 
 190   0.0000       0.848508        23.0891 
 191   0.0000       0.858988        23.3742 
 192   0.0000       0.860641        23.4192 
 193   0.0000       0.863883        23.5075 
 194   0.0000       0.868019        23.6200 
 195   0.0000       0.868152        23.6236 
 196   0.0000       0.868557        23.6346 
 197   0.0000       0.876429        23.8489 
 198   0.0000       0.883395        24.0384 
 199   0.0000       0.893020        24.3003 
 200   0.0000       0.895513        24.3681 
 201   0.0000       0.902007        24.5448 
 202   0.0000       0.903274        24.5793 
 203   0.0000       0.909819        24.7574 
 204   0.0000       0.925070        25.1724 
 205   0.0000       0.932915        25.3859 
 206   0.0000       0.938373        25.5344 
 207   0.0000       0.940479        25.5917 
 208   0.0000       0.945448        25.7269 
 209   0.0000       0.947282        25.7769 
 210   0.0000       0.948361        25.8062 
 211   0.0000       0.956073        26.0161 
 212   0.0000       0.958738        26.0886 
 213   0.0000       0.968036        26.3416 
 214   0.0000       0.974626        26.5209 
 215   0.0000       0.977688        26.6042 
 216   0.0000       1.007311        27.4103 
 217   0.0000       1.007361        27.4117 
 218   0.0000       1.023932        27.8626 
 219   0.0000       1.060041        28.8452 
 220   0.0000       1.067305        29.0428 
 221   0.0000       1.078571        29.3494 
 222   0.0000       1.106639        30.1132 
 223   0.0000       1.124979        30.6122 
 224   0.0000       1.127027        30.6680 
 225   0.0000       1.150582        31.3089 
 226   0.0000       1.166804        31.7503 
 227   0.0000       1.184132        32.2219 
 228   0.0000       1.196754        32.5653 
 229   0.0000       1.215068        33.0637 
 230   0.0000       1.239336        33.7241 
 231   0.0000       1.245558        33.8933 
 232   0.0000       1.256763        34.1983 
 233   0.0000       1.291033        35.1308 
 234   0.0000       1.294562        35.2268 
 235   0.0000       1.309538        35.6344 
 236   0.0000       1.330191        36.1963 
 237   0.0000       1.334464        36.3126 
 238   0.0000       1.370593        37.2957 
 239   0.0000       1.371588        37.3228 
 240   0.0000       1.388225        37.7755 
 241   0.0000       1.404791        38.2263 
 242   0.0000       1.424909        38.7738 
 243   0.0000       1.485504        40.4226 
 244   0.0000       1.504275        40.9334 
 245   0.0000       1.552729        42.2519 
 246   0.0000       1.556727        42.3607 
 247   0.0000       1.576467        42.8978 
 248   0.0000       1.608444        43.7680 
 249   0.0000       1.611217        43.8435 
 250   0.0000       1.644122        44.7388 
 251   0.0000       1.673806        45.5466 
 252   0.0000       1.677740        45.6536 
 253   0.0000       1.680561        45.7304 
 254   0.0000       1.711071        46.5606 
 255   0.0000       1.717079        46.7241 
 256   0.0000       1.731036        47.1039 
 257   0.0000       1.735948        47.2375 
 258   0.0000       1.746468        47.5238 
 259   0.0000       1.751928        47.6724 
 260   0.0000       1.758599        47.8539 
 261   0.0000       1.763735        47.9937 
 262   0.0000       1.768846        48.1327 
 263   0.0000       1.772744        48.2388 
 264   0.0000       1.777177        48.3594 
 265   0.0000       1.778002        48.3819 
 266   0.0000       1.783978        48.5445 
 267   0.0000       1.789576        48.6968 
 268   0.0000       1.801601        49.0241 
 269   0.0000       1.806588        49.1598 
 270   0.0000       1.816209        49.4215 
 271   0.0000       1.828380        49.7528 
 272   0.0000       1.837472        50.0002 
 273   0.0000       1.843258        50.1576 
 274   0.0000       1.852320        50.4042 
 275   0.0000       1.861028        50.6411 
 276   0.0000       1.879017        51.1306 
 277   0.0000       1.894721        51.5580 
 278   0.0000       1.913818        52.0776 
 279   0.0000       1.920279        52.2534 
 280   0.0000       1.927355        52.4460 
 281   0.0000       1.936192        52.6865 
 282   0.0000       1.939195        52.7682 
 283   0.0000       1.952992        53.1436 
 284   0.0000       1.967519        53.5389 
 285   0.0000       2.007425        54.6248 
 286   0.0000       2.078889        56.5694 
 287   0.0000       2.101564        57.1865 
 288   0.0000       2.117635        57.6238 
 289   0.0000       2.120981        57.7148 
 290   0.0000       2.129526        57.9474 
 291   0.0000       2.133690        58.0606 
 292   0.0000       2.136508        58.1374 
 293   0.0000       2.183181        59.4074 
 294   0.0000       2.193608        59.6911 
 295   0.0000       2.195171        59.7336 
 296   0.0000       2.204476        59.9869 
 297   0.0000       2.234977        60.8168 
 298   0.0000       2.262113        61.5552 
 299   0.0000       2.274856        61.9020 
 300   0.0000       2.280912        62.0668 
 301   0.0000       2.310081        62.8605 
 302   0.0000       2.348366        63.9023 
 303   0.0000       2.357557        64.1524 
 304   0.0000       2.377349        64.6910 
 305   0.0000       2.404491        65.4295 
 306   0.0000       2.421385        65.8892 
 307   0.0000       2.426246        66.0215 
 308   0.0000       2.451679        66.7136 
 309   0.0000       2.453545        66.7643 
 310   0.0000       2.465288        67.0839 
 311   0.0000       2.486397        67.6583 
 312   0.0000       2.528210        68.7961 
 313   0.0000       2.641876        71.8891 
 314   0.0000       2.657935        72.3261 
 315   0.0000       2.678174        72.8768 
 316   0.0000       2.680646        72.9441 
 317   0.0000       2.685326        73.0714 
 318   0.0000       2.686902        73.1143 
 319   0.0000       2.692845        73.2760 
 320   0.0000       2.731874        74.3381 
 321   0.0000       2.762114        75.1610 
 322   0.0000       2.764700        75.2313 
 323   0.0000       2.778078        75.5954 
 324   0.0000       2.807322        76.3911 
 325   0.0000       2.822431        76.8022 
 326   0.0000       2.831299        77.0436 
 327   0.0000       2.832624        77.0796 
 328   0.0000       2.834759        77.1377 
 329   0.0000       2.840284        77.2880 
 330   0.0000       2.847903        77.4954 
 331   0.0000       2.848942        77.5237 
 332   0.0000       2.855994        77.7155 
 333   0.0000       2.873273        78.1857 
 334   0.0000       2.875830        78.2553 
 335   0.0000       2.916567        79.3638 
 336   0.0000       2.930511        79.7433 
 337   0.0000       2.936245        79.8993 
 338   0.0000       2.949146        80.2503 
 339   0.0000       2.956562        80.4521 
 340   0.0000       2.965288        80.6896 
 341   0.0000       2.974886        80.9508 
 342   0.0000       2.982498        81.1579 
 343   0.0000       2.987328        81.2893 
 344   0.0000       2.994664        81.4890 
 345   0.0000       3.007237        81.8311 
 346   0.0000       3.011487        81.9467 
 347   0.0000       3.023351        82.2696 
 348   0.0000       3.036432        82.6255 
 349   0.0000       3.080666        83.8292 
 350   0.0000       3.085958        83.9732 
 351   0.0000       3.092273        84.1450 
 352   0.0000       3.098762        84.3216 
 353   0.0000       3.102250        84.4165 
 354   0.0000       3.120017        84.9000 
 355   0.0000       3.130800        85.1934 
 356   0.0000       3.159269        85.9681 
 357   0.0000       3.178587        86.4938 
 358   0.0000       3.180758        86.5528 
 359   0.0000       3.184572        86.6566 
 360   0.0000       3.227802        87.8330 
 361   0.0000       3.255124        88.5764 
 362   0.0000       3.262825        88.7860 
 363   0.0000       3.274565        89.1054 
 364   0.0000       3.287335        89.4529 
 365   0.0000       3.303996        89.9063 
 366   0.0000       3.317806        90.2821 
 367   0.0000       3.328124        90.5629 
 368   0.0000       3.337549        90.8193 
 369   0.0000       3.352416        91.2239 
 370   0.0000       3.355047        91.2955 
 371   0.0000       3.371176        91.7344 
 372   0.0000       3.387799        92.1867 
 373   0.0000       3.391838        92.2966 
 374   0.0000       3.392538        92.3156 
 375   0.0000       3.423710        93.1639 
 376   0.0000       3.427401        93.2643 
 377   0.0000       3.437590        93.5416 
 378   0.0000       3.490066        94.9695 
 379   0.0000       3.531499        96.0970 
 380   0.0000       3.534717        96.1845 
 381   0.0000       3.553535        96.6966 
 382   0.0000       3.594218        97.8036 
 383   0.0000       3.598952        97.9325 
 384   0.0000       3.654194        99.4357 
 385   0.0000       3.676145       100.0330 
 386   0.0000       3.681823       100.1875 
 387   0.0000       3.715700       101.1093 
 388   0.0000       3.733539       101.5948 
 389   0.0000       3.740458       101.7830 
 390   0.0000       3.752817       102.1193 
 391   0.0000       3.805490       103.5526 
 392   0.0000       3.808726       103.6407 
 393   0.0000       3.818392       103.9037 
 394   0.0000       4.152542       112.9964 
 395   0.0000       4.267550       116.1259 
 396   0.0000       4.274308       116.3098 
 397   0.0000       4.284768       116.5945 
 398   0.0000       4.349941       118.3679 
 399   0.0000       4.375394       119.0605 
 400   0.0000       4.394163       119.5713 
 401   0.0000       4.403608       119.8283 
 402   0.0000       4.403936       119.8372 
 403   0.0000       4.472076       121.6914 
 404   0.0000       4.598823       125.1403 
 405   0.0000       4.601195       125.2049 
 406   0.0000       4.651967       126.5865 
 407   0.0000       4.668907       127.0474 
 408   0.0000       4.772616       129.8695 
 409   0.0000       4.831442       131.4702 
 410   0.0000       4.881630       132.8359 
 411   0.0000       4.932904       134.2311 
 412   0.0000       5.076715       138.1444 
 413   0.0000       5.092981       138.5871 
 414   0.0000       5.093366       138.5975 
 415   0.0000       5.093473       138.6004 
 416   0.0000       5.093772       138.6086 
 417   0.0000       5.093976       138.6141 
 418   0.0000       5.095102       138.6448 
 419   0.0000       5.095128       138.6455 
 420   0.0000       5.105546       138.9290 
 421   0.0000       5.113815       139.1540 
 422   0.0000       5.113892       139.1561 
 423   0.0000       5.299593       144.2093 
 424   0.0000       5.364328       145.9708 
 425   0.0000       5.512502       150.0028 
 426   0.0000       5.516974       150.1245 
 427   0.0000       5.519062       150.1813 
 428   0.0000       5.519228       150.1858 
 429   0.0000       5.519317       150.1883 
 430   0.0000       5.520064       150.2086 
 431   0.0000       5.524929       150.3410 
 432   0.0000       5.537644       150.6870 
 433   0.0000       5.558549       151.2558 
 434   0.0000       5.571729       151.6145 
 435   0.0000       5.712285       155.4392 
 436   0.0000       6.222357       169.3189 
 437   0.0000       6.247079       169.9917 
 438   0.0000       6.247154       169.9937 
 439   0.0000       6.265662       170.4973 
 440   0.0000       6.279092       170.8628 
 441   0.0000       6.280442       170.8995 
 442   0.0000       6.294544       171.2832 
 443   0.0000       6.328349       172.2031 
 444   0.0000       6.328753       172.2141 
 445   0.0000       6.335281       172.3918 
 446   0.0000       6.403282       174.2422 
 447   0.0000       6.403384       174.2449 
 448   0.0000       6.407245       174.3500 
 449   0.0000       6.425333       174.8422 
 450   0.0000       6.426800       174.8821 
 451   0.0000       6.431798       175.0181 
 452   0.0000       6.432631       175.0408 
 453   0.0000       6.449915       175.5111 
 454   0.0000       6.456353       175.6863 
 455   0.0000       6.463790       175.8887 
 456   0.0000       6.642060       180.7396 
 457   0.0000       6.656477       181.1320 
 458   0.0000       6.658094       181.1760 
 459   0.0000       6.660925       181.2530 
 460   0.0000       6.677240       181.6970 
 461   0.0000       6.835784       186.0111 
 462   0.0000       6.836232       186.0233 
 463   0.0000       6.844190       186.2399 
 464   0.0000       6.844355       186.2444 
 465   0.0000       6.853138       186.4834 
 466   0.0000       6.853928       186.5049 
 467   0.0000       6.859482       186.6560 
 468   0.0000       6.860380       186.6804 
 469   0.0000       6.866442       186.8454 
 470   0.0000       6.868729       186.9076 
 471   0.0000       7.194845       195.7817 
 472   0.0000       7.195627       195.8030 
 473   0.0000       7.202030       195.9772 
 474   0.0000       7.209477       196.1798 
 475   0.0000       7.222108       196.5236 
 476   0.0000      22.942501       624.2972 
 477   0.0000      22.951971       624.5549 
 478   0.0000      22.970847       625.0685 
 479   0.0000      22.988821       625.5576 
 480   0.0000      23.033204       626.7653 
 481   0.0000      25.059417       681.9014 
 482   0.0000      32.102439       873.5518 
 483   0.0000      44.098075      1199.9696 
 484   0.0000      44.171723      1201.9737 
 485   0.0000      44.175347      1202.0723 
 486   0.0000      44.246470      1204.0076 
 487   0.0000      44.263742      1204.4776 
 488   0.0000      84.483342      2298.9086 

                    ********************************
                    * MULLIKEN POPULATION ANALYSIS *
                    ********************************

-----------------------
MULLIKEN ATOMIC CHARGES
-----------------------
   0 O :   -0.208671
   1 O :   -0.208209
   2 C :    0.133065
   3 C :    0.115449
   4 Mo:    0.272735
   5 C :    0.161073
   6 O :   -0.204739
   7 N :   -0.719718
   8 C :    0.153835
   9 C :    0.128555
  10 O :   -0.210255
  11 O :   -0.208949
  12 H :    0.232679
  13 H :    0.285657
  14 H :    0.277494
Sum of atomic charges:   -0.0000000

--------------------------------
MULLIKEN REDUCED ORBITAL CHARGES
--------------------------------
  0 O s       :     3.891988  s :     3.891988
      pz      :     1.486498  p :     4.263551
      px      :     1.484471
      py      :     1.292582
      dz2     :     0.003538  d :     0.051437
      dxz     :     0.000454
      dyz     :     0.019877
      dx2y2   :     0.007641
      dxy     :     0.019927
      f0      :     0.000218  f :     0.001695
      f+1     :     0.000036
      f-1     :     0.000192
      f+2     :     0.000395
      f-2     :     0.000044
      f+3     :     0.000627
      f-3     :     0.000184
  1 O s       :     3.892886  s :     3.892886
      pz      :     1.486479  p :     4.262959
      px      :     1.291274
      py      :     1.485207
      dz2     :     0.002612  d :     0.050672
      dxz     :     0.020198
      dyz     :     0.000123
      dx2y2   :     0.007724
      dxy     :     0.020017
      f0      :     0.000249  f :     0.001692
      f+1     :     0.000130
      f-1     :     0.000042
      f+2     :     0.000422
      f-2     :     0.000021
      f+3     :     0.000188
      f-3     :     0.000640
  2 C s       :     3.602832  s :     3.602832
      pz      :     0.648365  p :     2.149594
      px      :     0.623113
      py      :     0.878116
      dz2     :     0.004367  d :     0.097898
      dxz     :     0.005782
      dyz     :     0.043157
      dx2y2   :     0.004535
      dxy     :     0.040056
      f0      :     0.001900  f :     0.016611
      f+1     :     0.000294
      f-1     :     0.002346
      f+2     :     0.003443
      f-2     :     0.000440
      f+3     :     0.005159
      f-3     :     0.003028
  3 C s       :     3.608146  s :     3.608146
      pz      :     0.644226  p :     2.157815
      px      :     0.887468
      py      :     0.626122
      dz2     :     0.007382  d :     0.101970
      dxz     :     0.044326
      dyz     :     0.005481
      dx2y2   :     0.004733
      dxy     :     0.040050
      f0      :     0.002062  f :     0.016620
      f+1     :     0.002019
      f-1     :     0.000343
      f+2     :     0.003527
      f-2     :     0.000251
      f+3     :     0.003129
      f-3     :     0.005290
  4 Mos       :     2.480609  s :     2.480609
      pz      :     2.073940  p :     6.499724
      px      :     2.217335
      py      :     2.208449
      dz2     :     0.496859  d :     4.725719
      dxz     :     1.307984
      dyz     :     1.264627
      dx2y2   :     0.425021
      dxy     :     1.231229
      f0      :     0.006138  f :     0.021212
      f+1     :     0.003313
      f-1     :     0.003339
      f+2     :     0.001078
      f-2     :     0.000170
      f+3     :     0.003604
      f-3     :     0.003569
  5 C s       :     3.584603  s :     3.584603
      pz      :     0.862656  p :     2.138219
      px      :     0.636927
      py      :     0.638636
      dz2     :     0.008473  d :     0.099561
      dxz     :     0.041057
      dyz     :     0.040078
      dx2y2   :     0.003762
      dxy     :     0.006191
      f0      :     0.004974  f :     0.016544
      f+1     :     0.005324
      f-1     :     0.005280
      f+2     :     0.000466
      f-2     :     0.000479
      f+3     :     0.000011
      f-3     :     0.000011
  6 O s       :     3.875445  s :     3.875445
      pz      :     1.293744  p :     4.275263
      px      :     1.491608
      py      :     1.489911
      dz2     :     0.012263  d :     0.052324
      dxz     :     0.019630
      dyz     :     0.019492
      dx2y2   :     0.000449
      dxy     :     0.000489
      f0      :     0.000350  f :     0.001708
      f+1     :     0.000639
      f-1     :     0.000617
      f+2     :     0.000052
      f-2     :     0.000050
      f+3     :     0.000001
      f-3     :     0.000001
  7 N s       :     3.454352  s :     3.454352
      pz      :     1.707200  p :     4.189843
      px      :     1.227076
      py      :     1.255567
      dz2     :    -0.004074  d :     0.073974
      dxz     :     0.024853
      dyz     :     0.021068
      dx2y2   :     0.011235
      dxy     :     0.020891
      f0      :     0.000450  f :     0.001549
      f+1     :     0.000190
      f-1     :     0.000236
      f+2     :     0.000099
      f-2     :     0.000063
      f+3     :     0.000457
      f-3     :     0.000054
  8 C s       :     3.590371  s :     3.590371
      pz      :     0.643611  p :     2.144824
      px      :     0.877857
      py      :     0.623356
      dz2     :     0.002052  d :     0.094356
      dxz     :     0.044631
      dyz     :     0.004874
      dx2y2   :     0.003403
      dxy     :     0.039397
      f0      :     0.002065  f :     0.016614
      f+1     :     0.002046
      f-1     :     0.000344
      f+2     :     0.003501
      f-2     :     0.000275
      f+3     :     0.003124
      f-3     :     0.005259
  9 C s       :     3.604633  s :     3.604633
      pz      :     0.645769  p :     2.151227
      px      :     0.624735
      py      :     0.880723
      dz2     :     0.007325  d :     0.098976
      dxz     :     0.005911
      dyz     :     0.042219
      dx2y2   :     0.003909
      dxy     :     0.039612
      f0      :     0.001920  f :     0.016609
      f+1     :     0.000305
      f-1     :     0.002306
      f+2     :     0.003449
      f-2     :     0.000408
      f+3     :     0.005176
      f-3     :     0.003045
 10 O s       :     3.891045  s :     3.891045
      pz      :     1.490212  p :     4.265063
      px      :     1.290992
      py      :     1.483859
      dz2     :     0.002862  d :     0.052451
      dxz     :     0.021008
      dyz     :     0.000213
      dx2y2   :     0.008063
      dxy     :     0.020306
      f0      :     0.000248  f :     0.001695
      f+1     :     0.000138
      f-1     :     0.000042
      f+2     :     0.000418
      f-2     :     0.000024
      f+3     :     0.000191
      f-3     :     0.000636
 11 O s       :     3.892608  s :     3.892608
      pz      :     1.484814  p :     4.263477
      px      :     1.484656
      py      :     1.294006
      dz2     :     0.003179  d :     0.051170
      dxz     :     0.000357
      dyz     :     0.019892
      dx2y2   :     0.007897
      dxy     :     0.019844
      f0      :     0.000223  f :     0.001694
      f+1     :     0.000036
      f-1     :     0.000183
      f+2     :     0.000399
      f-2     :     0.000041
      f+3     :     0.000628
      f-3     :     0.000185
 12 H s       :     0.676790  s :     0.676790
      pz      :     0.039307  p :     0.090531
      px      :     0.036407
      py      :     0.014816
 13 H s       :     0.628631  s :     0.628631
      pz      :     0.033650  p :     0.085712
      px      :     0.020399
      py      :     0.031663
 14 H s       :     0.635979  s :     0.635979
      pz      :     0.037402  p :     0.086527
      px      :     0.015875
      py      :     0.033250


                     *******************************
                     * LOEWDIN POPULATION ANALYSIS *
                     *******************************

----------------------
LOEWDIN ATOMIC CHARGES
----------------------
   0 O :    0.089561
   1 O :    0.090677
   2 C :   -0.226544
   3 C :   -0.228328
   4 Mo:    0.600262
   5 C :   -0.250792
   6 O :    0.080284
   7 N :   -0.112383
   8 C :   -0.225166
   9 C :   -0.226929
  10 O :    0.088511
  11 O :    0.089666
  12 H :    0.077054
  13 H :    0.077039
  14 H :    0.077088

-------------------------------
LOEWDIN REDUCED ORBITAL CHARGES
-------------------------------
  0 O s       :     3.401713  s :     3.401713
      pz      :     1.345855  p :     4.299581
      px      :     1.338615
      py      :     1.615111
      dz2     :     0.027680  d :     0.202053
      dxz     :     0.001238
      dyz     :     0.049206
      dx2y2   :     0.082904
      dxy     :     0.041024
      f0      :     0.000662  f :     0.007092
      f+1     :     0.000082
      f-1     :     0.001377
      f+2     :     0.001185
      f-2     :     0.000102
      f+3     :     0.001440
      f-3     :     0.002244
  1 O s       :     3.401578  s :     3.401578
      pz      :     1.339570  p :     4.298843
      px      :     1.619629
      py      :     1.339645
      dz2     :     0.029028  d :     0.201812
      dxz     :     0.044738
      dyz     :     0.000510
      dx2y2   :     0.085377
      dxy     :     0.042159
      f0      :     0.000646  f :     0.007090
      f+1     :     0.001400
      f-1     :     0.000098
      f+2     :     0.001088
      f-2     :     0.000049
      f+3     :     0.002309
      f-3     :     0.001500
  2 C s       :     3.006728  s :     3.006728
      pz      :     0.644094  p :     2.364277
      px      :     0.621370
      py      :     1.098813
      dz2     :     0.084526  d :     0.766879
      dxz     :     0.019883
      dyz     :     0.232194
      dx2y2   :     0.196490
      dxy     :     0.233785
      f0      :     0.010070  f :     0.088661
      f+1     :     0.001524
      f-1     :     0.012850
      f+2     :     0.018106
      f-2     :     0.002062
      f+3     :     0.027005
      f-3     :     0.017045
  3 C s       :     3.006695  s :     3.006695
      pz      :     0.632768  p :     2.363923
      px      :     1.109023
      py      :     0.622132
      dz2     :     0.088864  d :     0.769048
      dxz     :     0.228933
      dyz     :     0.017310
      dx2y2   :     0.196852
      dxy     :     0.237088
      f0      :     0.010918  f :     0.088662
      f+1     :     0.011181
      f-1     :     0.001799
      f+2     :     0.018407
      f-2     :     0.001073
      f+3     :     0.017563
      f-3     :     0.027721
  4 Mos       :     1.890140  s :     1.890140
      pz      :     2.134184  p :     6.496598
      px      :     2.181518
      py      :     2.180896
      dz2     :     0.773810  d :     4.968621
      dxz     :     1.168933
      dyz     :     1.150449
      dx2y2   :     0.772725
      dxy     :     1.102705
      f0      :     0.012698  f :     0.044379
      f+1     :     0.006758
      f-1     :     0.006790
      f+2     :     0.002114
      f-2     :     0.000227
      f+3     :     0.007930
      f-3     :     0.007861
  5 C s       :     2.998791  s :     2.998791
      pz      :     1.094622  p :     2.368295
      px      :     0.634466
      py      :     0.639207
      dz2     :     0.258006  d :     0.795162
      dxz     :     0.244955
      dyz     :     0.245383
      dx2y2   :     0.026614
      dxy     :     0.020205
      f0      :     0.027930  f :     0.088544
      f+1     :     0.028047
      f-1     :     0.027931
      f+2     :     0.002241
      f-2     :     0.002316
      f+3     :     0.000040
      f-3     :     0.000039
  6 O s       :     3.400167  s :     3.400167
      pz      :     1.612371  p :     4.309366
      px      :     1.347120
      py      :     1.349875
      dz2     :     0.108513  d :     0.203103
      dxz     :     0.044925
      dyz     :     0.046940
      dx2y2   :     0.001353
      dxy     :     0.001372
      f0      :     0.003453  f :     0.007081
      f+1     :     0.001631
      f-1     :     0.001753
      f+2     :     0.000118
      f-2     :     0.000123
      f+3     :     0.000001
      f-3     :     0.000001
  7 N s       :     3.034171  s :     3.034171
      pz      :     1.389430  p :     3.713256
      px      :     1.160431
      py      :     1.163394
      dz2     :     0.067839  d :     0.358803
      dxz     :     0.107279
      dyz     :     0.098587
      dx2y2   :     0.032999
      dxy     :     0.052099
      f0      :     0.000932  f :     0.006154
      f+1     :     0.000593
      f-1     :     0.000795
      f+2     :     0.001380
      f-2     :     0.000988
      f+3     :     0.001265
      f-3     :     0.000200
  8 C s       :     3.006862  s :     3.006862
      pz      :     0.637067  p :     2.364475
      px      :     1.104828
      py      :     0.622580
      dz2     :     0.080799  d :     0.765195
      dxz     :     0.233503
      dyz     :     0.016164
      dx2y2   :     0.198667
      dxy     :     0.236061
      f0      :     0.010864  f :     0.088634
      f+1     :     0.011363
      f-1     :     0.001776
      f+2     :     0.018323
      f-2     :     0.001198
      f+3     :     0.017564
      f-3     :     0.027546
  9 C s       :     3.006702  s :     3.006702
      pz      :     0.639047  p :     2.364157
      px      :     0.621724
      py      :     1.103386
      dz2     :     0.092519  d :     0.767430
      dxz     :     0.018879
      dyz     :     0.227222
      dx2y2   :     0.194573
      dxy     :     0.234238
      f0      :     0.010186  f :     0.088641
      f+1     :     0.001574
      f-1     :     0.012597
      f+2     :     0.018165
      f-2     :     0.001924
      f+3     :     0.027087
      f-3     :     0.017107
 10 O s       :     3.401935  s :     3.401935
      pz      :     1.342899  p :     4.300246
      px      :     1.618402
      py      :     1.338944
      dz2     :     0.028311  d :     0.202219
      dxz     :     0.046778
      dyz     :     0.000689
      dx2y2   :     0.084414
      dxy     :     0.042028
      f0      :     0.000644  f :     0.007088
      f+1     :     0.001407
      f-1     :     0.000097
      f+2     :     0.001088
      f-2     :     0.000057
      f+3     :     0.002303
      f-3     :     0.001492
 11 O s       :     3.401737  s :     3.401737
      pz      :     1.344382  p :     4.299506
      px      :     1.338903
      py      :     1.616222
      dz2     :     0.028627  d :     0.202004
      dxz     :     0.000912
      dyz     :     0.046979
      dx2y2   :     0.084028
      dxy     :     0.041457
      f0      :     0.000667  f :     0.007087
      f+1     :     0.000084
      f-1     :     0.001366
      f+2     :     0.001184
      f-2     :     0.000092
      f+3     :     0.001448
      f-3     :     0.002246
 12 H s       :     0.636449  s :     0.636449
      pz      :     0.105389  p :     0.286497
      px      :     0.120329
      py      :     0.060779
 13 H s       :     0.636549  s :     0.636549
      pz      :     0.097054  p :     0.286412
      px      :     0.083880
      py      :     0.105478
 14 H s       :     0.636546  s :     0.636546
      pz      :     0.103901  p :     0.286366
      px      :     0.072881
      py      :     0.109583


                      *****************************
                      * MAYER POPULATION ANALYSIS *
                      *****************************

  NA   - Mulliken gross atomic population
  ZA   - Total nuclear charge
  QA   - Mulliken gross atomic charge
  VA   - Mayer's total valence
  BVA  - Mayer's bonded valence
[...]
      4      -0.026156   0.044097   0.039917   0.021501  -0.000017  -0.000047
      5      -0.001598  -0.005854   0.018757  -0.139903   0.000008  -0.000013
      6       0.177176  -0.132991   0.141811  -0.057833  -0.000262  -0.000192
      7      -0.005308   0.004769  -0.015981  -0.087508   0.000168  -0.000105
      8       0.012510  -0.075826  -0.040093   0.449271   0.000384  -0.000275
      9       0.017786  -0.026895   0.011141  -0.023423  -0.000373  -0.000101
     10       0.075902  -0.143480  -0.134604  -0.069535  -0.000081   0.000333
     11       0.013258   0.026678  -0.069234   0.464564   0.000544   0.000087
     12      -0.024674   0.058891  -0.051201   0.021485  -0.000038  -0.000020
     13      -0.008988   0.049927   0.059927   0.024704  -0.000034  -0.000289
     14      -0.003489   0.016088   0.001494  -0.169610   0.000242  -0.000043
     15      -0.056221  -0.271222   0.236417  -0.032887   0.000098   0.000066
     16      -0.021193  -0.230568  -0.274051  -0.018623   0.000063   0.000955
     17      -0.008373  -0.061650  -0.016687   0.102526  -0.000408   0.000149
     18       0.019728   0.082487  -0.071796  -0.004342  -0.000094  -0.000018
     19       0.007403   0.070314   0.082955  -0.015736  -0.000125  -0.000244
     20       0.003152   0.016094   0.006210   0.115323   0.000869  -0.000038
     21      -0.085968  -0.079982   0.069479  -0.006873  -0.012270  -0.004473
     22      -0.031229  -0.067417  -0.080740  -0.000761  -0.015658  -0.063586
     23      -0.014347  -0.020118  -0.002472   0.002406   0.109670  -0.009595
     24       0.017186  -0.015329  -0.001165  -0.071260   0.000085   0.000087
     25       0.076590  -0.125040  -0.148793  -0.064326  -0.000057  -0.000214
     26       0.022321  -0.084040   0.039214   0.449133   0.000199   0.000014
     27       0.175203  -0.147570   0.128432  -0.055760  -0.000286   0.000201
     28      -0.005438  -0.010191  -0.032132  -0.039647  -0.000263   0.000015
     29       0.008702   0.032385   0.071342   0.460262   0.000357   0.000192
     30       0.015765  -0.015102   0.019333   0.030149  -0.000106  -0.000085
     31      -0.026121   0.039908   0.043153   0.018696   0.000006   0.000006
     32      -0.005476   0.020061  -0.006630  -0.134478   0.000017  -0.000016
     33      -0.056022   0.043043  -0.040524   0.015998   0.000041  -0.000005
     34       0.011651  -0.016294  -0.010690   0.002111   0.000219  -0.000026
     35      -0.001470  -0.009035  -0.020542  -0.139510   0.000039  -0.000093
     36       0.253877   0.170944  -0.154580   0.016682   0.269605   0.066678
     37       0.165858   0.179316   0.065631   0.007152   0.053665   0.743612
     38      -0.605909  -0.423730   0.474433  -0.041850  -0.503323   0.109340
     39       0.123215   0.047118  -0.149208   0.011015  -0.060304  -0.361429
     40      -0.025886   0.009182   0.116391  -0.004073  -0.094206   0.157340
     41       0.613407   0.654435   0.162233   0.038424  -0.562720  -0.253562
     42       0.198579   0.169085  -0.032492   0.012692  -0.029345   0.358183
     43       0.069988   0.138467   0.206113  -0.003571   0.265399   0.001523
     44       0.085391  -0.143140  -0.616481   0.025663  -0.508144   0.280188
                 36         37         38         39         40         41    
      0      -0.000065  -0.004863  -0.019937  -0.002777  -0.013847  -0.012699
      1      -0.001217  -0.101495  -0.413182  -0.044697  -0.285942  -0.261684
      2      -0.000348  -0.021747  -0.087166  -0.009482  -0.060347  -0.054893
      3      -0.001098   0.104022  -0.045432   0.423943  -0.288792   0.266906
      4       0.000066  -0.006137   0.003315  -0.025147   0.017180  -0.015924
      5      -0.000045   0.002699  -0.001243   0.012429  -0.008419   0.008134
      6       0.000045   0.006549   0.026254   0.003200   0.019038   0.018082
      7       0.001392   0.138635   0.547159   0.059185   0.397364   0.373386
      8       0.000775   0.029859   0.117868   0.012723   0.085512   0.078682
      9       0.001350  -0.142113   0.060229  -0.562247   0.401979  -0.381053
     10      -0.000030   0.008347  -0.003926   0.033030  -0.023671   0.022692
     11      -0.000180  -0.003550   0.001464  -0.014160   0.010094  -0.011258
     12      -0.000290  -0.000209   0.000139  -0.000847   0.000050   0.000396
     13       0.000023  -0.000334   0.000854   0.000155   0.000003   0.000604
     14      -0.000019   0.002337   0.000133  -0.000028  -0.000001  -0.004011
     15       0.000958   0.071438   0.000346  -0.000091  -0.000100  -0.027777
     16      -0.000077   0.109135   0.000722   0.000344  -0.000128  -0.042511
     17       0.000062  -0.745089  -0.003131  -0.002005   0.000756   0.290381
     18      -0.000246  -0.051594  -0.000152  -0.000533   0.000070   0.019136
     19       0.000019  -0.079008   0.000064  -0.000137   0.000087   0.029344
     20      -0.000004   0.539155   0.002365   0.001391  -0.000539  -0.200205
     21      -0.063842  -0.000306  -0.000789   0.004748   0.003022   0.000127
     22       0.005477  -0.000467  -0.004618  -0.000786  -0.000499  -0.000008
     23      -0.006569   0.003410  -0.000650   0.000013   0.000273   0.000022
     24      -0.001444   0.143145   0.061830  -0.548927  -0.401494   0.377681
     25       0.000194  -0.012008  -0.005490   0.045974   0.033628  -0.031379
     26      -0.000808   0.022702   0.009774  -0.087136  -0.063579   0.058173
     27      -0.000081  -0.009602   0.036139   0.004388  -0.026136  -0.024504
     28      -0.001538  -0.146276   0.557791   0.062196  -0.402340  -0.379890
     29       0.000346  -0.011654   0.044453   0.004926  -0.032125  -0.031990
     30       0.001234  -0.104838  -0.046600   0.414368   0.288800  -0.264612
     31      -0.000127   0.008769   0.004476  -0.034402  -0.024020   0.021969
     32       0.000350  -0.016507  -0.007113   0.063985   0.044603  -0.040558
     33       0.000070   0.006960  -0.027059  -0.003635   0.018633   0.017134
     34       0.001249   0.107136  -0.420540  -0.046839   0.289026   0.266091
     35       0.000018   0.008652  -0.035270  -0.003977   0.024218   0.022626
     36      -0.173164  -0.004382   0.001923  -0.011764   0.008226   0.003086
     37      -0.011354  -0.001333   0.011270  -0.003599   0.003654  -0.001064
     38       0.251286   0.010714  -0.001225   0.034873  -0.014635   0.004462
     39       0.501137   0.000298  -0.003997  -0.009270  -0.025520  -0.002807
     40      -0.416301   0.001436   0.004424   0.005820   0.019990  -0.002644
     41      -0.142783   0.011369   0.032047  -0.013798   0.007366   0.002612
     42       0.578615  -0.000335   0.006937  -0.008766  -0.026676  -0.002565
     43       0.350215  -0.004896   0.012737   0.002285  -0.016568   0.002227
     44      -0.017266   0.010737  -0.026850  -0.019285   0.003455   0.003400
                 42         43         44    
      0       0.000014  -0.000018   0.000014
      1       0.000136  -0.000049   0.000031
      2       0.000011   0.000022  -0.000005
      3      -0.000149  -0.000001   0.000092
      4       0.000014  -0.000002  -0.000015
      5      -0.000037  -0.000001   0.000058
      6      -0.000042   0.000075  -0.000066
      7      -0.000212   0.000076  -0.000052
      8       0.000001  -0.000057   0.000023
      9       0.000241   0.000001  -0.000155
     10      -0.000030   0.000011   0.000037
     11       0.000102   0.000002  -0.000150
     12      -0.000002  -0.000001   0.000015
     13      -0.000002  -0.000015  -0.000001
     14       0.000012  -0.000002  -0.000002
     15       0.000014   0.000005  -0.000051
     16       0.000031   0.000052   0.000004
     17      -0.000211   0.000007  -0.000003
     18      -0.000018  -0.000000   0.000005
     19      -0.000029  -0.000004   0.000000
     20       0.000196  -0.000000  -0.000002
     21       0.005270  -0.006768   0.078827
     22       0.005350  -0.078457  -0.008072
     23      -0.038228  -0.011962   0.008396
     24      -0.000169   0.000010   0.000009
     25       0.000011   0.000096  -0.000006
     26      -0.000019   0.000011   0.000027
     27      -0.000019  -0.000064  -0.000056
     28       0.000211   0.000078   0.000055
     29       0.000071   0.000088   0.000044
     30       0.000117  -0.000003   0.000003
     31      -0.000008  -0.000018   0.000003
     32       0.000012  -0.000002  -0.000016
     33      -0.000002   0.000012   0.000010
     34      -0.000136  -0.000050  -0.000033
     35      -0.000032  -0.000039  -0.000016
     36       0.514717  -0.001874  -0.724194
     37      -0.078913  -0.020853   0.118171
     38       0.227077  -0.003201  -0.366446
     39      -0.334280   0.411174  -0.213562
     40      -0.468770   0.557212  -0.330383
     41       0.078735  -0.131563   0.075249
     42      -0.253194  -0.315272  -0.157218
     43       0.473736   0.553555   0.324259
     44       0.222567   0.300881   0.175104


-----------
IR SPECTRUM
-----------

 Mode   freq       eps      Int      T**2         TX        TY        TZ
       cm**-1   L/(mol*cm) km/mol    a.u.
----------------------------------------------------------------------------
  6:     23.87   0.000060    0.30  0.000782  (-0.001775  0.027658  0.003691)
  7:     48.17   0.000000    0.00  0.000001  (-0.000790  0.000182 -0.000006)
  8:     63.61   0.000318    1.61  0.001560  ( 0.039164  0.002980  0.004178)
  9:     64.36   0.000273    1.38  0.001323  (-0.003704  0.035875  0.004704)
 10:     78.82   0.000358    1.81  0.001415  (-0.004356 -0.004804  0.037060)
 11:     80.01   0.000001    0.00  0.000002  ( 0.000101  0.000303 -0.001415)
 12:     85.60   0.000449    2.27  0.001638  ( 0.039006  0.009248  0.005563)
 13:     85.96   0.000434    2.20  0.001577  (-0.009749  0.038291  0.003959)
 14:    119.48   0.000701    3.54  0.001831  (-0.042573  0.001209 -0.004087)
 15:    120.46   0.000698    3.53  0.001807  ( 0.000608  0.042067  0.006119)
 16:    314.20   0.000216    1.09  0.000215  ( 0.001917  0.001969 -0.014397)
 17:    350.27   0.000000    0.00  0.000000  ( 0.000075 -0.000281 -0.000043)
 18:    373.47   0.013723   69.35  0.011467  ( 0.015964  0.104641  0.016186)
 19:    373.99   0.013687   69.17  0.011420  (-0.105036  0.017702 -0.008629)
 20:    388.78   0.000498    2.52  0.000400  ( 0.013965  0.014079  0.002617)
 21:    388.96   0.000495    2.50  0.000397  (-0.014757  0.013360  0.001094)
 22:    397.09   0.000005    0.02  0.000004  (-0.000961 -0.001357 -0.000967)
 23:    404.15   0.000520    2.63  0.000402  (-0.001839 -0.001111  0.019927)
 24:    455.54   0.000536    2.71  0.000367  ( 0.001494  0.003275 -0.018815)
 25:    490.59   0.000000    0.00  0.000000  ( 0.000458 -0.000183 -0.000004)
 26:    538.83   0.000003    0.01  0.000002  ( 0.001216 -0.000199  0.000340)
 27:    541.75   0.000007    0.04  0.000004  (-0.001618 -0.001272  0.000234)
 28:    541.80   0.000006    0.03  0.000004  ( 0.001500 -0.001121 -0.000240)
 29:    568.11   0.003690   18.65  0.002027  ( 0.016066 -0.041863 -0.004026)
 30:    568.19   0.003728   18.84  0.002047  ( 0.042044  0.015216  0.006935)
 31:    622.02   0.009957   50.32  0.004995  (-0.052893 -0.044977 -0.013219)
 32:    622.05   0.009942   50.25  0.004988  ( 0.045957 -0.053577 -0.002314)
 33:    634.40   0.010050   50.79  0.004943  (-0.009199 -0.010101  0.068969)
 34:   1217.82   0.026681  134.84  0.006837  ( 0.008699  0.011604 -0.081404)
 35:   1667.00   0.005083   25.69  0.000951  ( 0.002132  0.030423  0.004622)
 36:   1668.57   0.004901   24.77  0.000917  ( 0.030031 -0.002499  0.002921)
 37:   2004.89   0.195110  986.00  0.030369  ( 0.017172  0.023529 -0.171815)
 38:   2017.70   0.471620  2383.37  0.072942  ( 0.044420  0.263228  0.040988)
 39:   2017.79   0.471923  2384.91  0.072986  (-0.265072  0.048116 -0.020187)
 40:   2049.35   0.000031    0.16  0.000005  (-0.001943  0.000969  0.000087)
 41:   2138.66   0.009753   49.29  0.001423  (-0.003544 -0.005573  0.037141)
 42:   3466.32   0.000871    4.40  0.000078  (-0.001083 -0.001221  0.008706)
 43:   3562.84   0.005669   28.65  0.000497  ( 0.001899  0.021931  0.003459)
 44:   3564.77   0.005737   28.99  0.000502  (-0.022163  0.002316 -0.002378)

* The epsilon (eps) is given for a Dirac delta lineshape.
** The dipole moment derivative (T) already includes vibrational overlap.

The first frequency considered to be a vibration is 6
The total number of vibrations considered is 39


--------------------------
THERMOCHEMISTRY AT 298.15K
--------------------------

Temperature         ... 298.15 K
Pressure            ... 1.00 atm
Total Mass          ... 253.02 AMU

Throughout the following assumptions are being made:
  (1) The electronic state is orbitally nondegenerate
  (2) There are no thermally accessible electronically excited states
  (3) Hindered rotations indicated by low frequency modes are not
      treated as such but are treated as vibrations and this may
      cause some error
  (4) All equations used are the standard statistical mechanics
      equations for an ideal gas
  (5) All vibrations are strictly harmonic

freq.      23.87  E(vib)   ...       0.56 
freq.      48.17  E(vib)   ...       0.53 
freq.      63.61  E(vib)   ...       0.51 
freq.      64.36  E(vib)   ...       0.51 
freq.      78.82  E(vib)   ...       0.49 
freq.      80.01  E(vib)   ...       0.49 
freq.      85.60  E(vib)   ...       0.48 
freq.      85.96  E(vib)   ...       0.48 
freq.     119.48  E(vib)   ...       0.44 
freq.     120.46  E(vib)   ...       0.44 
freq.     314.20  E(vib)   ...       0.25 
freq.     350.27  E(vib)   ...       0.23 
freq.     373.47  E(vib)   ...       0.21 
freq.     373.99  E(vib)   ...       0.21 
freq.     388.78  E(vib)   ...       0.20 
freq.     388.96  E(vib)   ...       0.20 
freq.     397.09  E(vib)   ...       0.20 
freq.     404.15  E(vib)   ...       0.19 
freq.     455.54  E(vib)   ...       0.16 
freq.     490.59  E(vib)   ...       0.15 
freq.     538.83  E(vib)   ...       0.12 
freq.     541.75  E(vib)   ...       0.12 
freq.     541.80  E(vib)   ...       0.12 
freq.     568.11  E(vib)   ...       0.11 
freq.     568.19  E(vib)   ...       0.11 
freq.     622.02  E(vib)   ...       0.09 
freq.     622.05  E(vib)   ...       0.09 
freq.     634.40  E(vib)   ...       0.09 
freq.    1217.82  E(vib)   ...       0.01 
freq.    1667.00  E(vib)   ...       0.00 
freq.    1668.57  E(vib)   ...       0.00 
freq.    2004.89  E(vib)   ...       0.00 
freq.    2017.70  E(vib)   ...       0.00 
freq.    2017.79  E(vib)   ...       0.00 
freq.    2049.35  E(vib)   ...       0.00 
freq.    2138.66  E(vib)   ...       0.00 
freq.    3466.32  E(vib)   ...       0.00 
freq.    3562.84  E(vib)   ...       0.00 
freq.    3564.77  E(vib)   ...       0.00 

------------
INNER ENERGY
------------

The inner energy is: U= E(el) + E(ZPE) + E(vib) + E(rot) + E(trans)
    E(el)   - is the total energy from the electronic structure calculation
              = E(kin-el) + E(nuc-el) + E(el-el) + E(nuc-nuc)
    E(ZPE)  - the the zero temperature vibrational energy from the frequency calculation
    E(vib)  - the the finite temperature correction to E(ZPE) due to population
              of excited vibrational states
    E(rot)  - is the rotational thermal energy
    E(trans)- is the translational thermal energy

Summary of contributions to the inner energy U:
Electronic energy                ...   -691.51800616 Eh
Zero point energy                ...      0.07909848 Eh      49.63 kcal/mol
Thermal vibrational correction   ...      0.01239892 Eh       7.78 kcal/mol
Thermal rotational correction    ...      0.00141627 Eh       0.89 kcal/mol
Thermal translational correction ...      0.00141627 Eh       0.89 kcal/mol
-----------------------------------------------------------------------
Total thermal energy                   -691.42367622 Eh


Summary of corrections to the electronic energy:
(perhaps to be used in another calculation)
Total thermal correction                  0.01523146 Eh       9.56 kcal/mol
Non-thermal (ZPE) correction              0.07909848 Eh      49.63 kcal/mol
-----------------------------------------------------------------------
Total correction                          0.09432994 Eh      59.19 kcal/mol


--------
ENTHALPY
--------

The enthalpy is H = U + kB*T
                kB is Boltzmann's constant
Total free energy                 ...   -691.42367622 Eh 
Thermal Enthalpy correction       ...      0.00094421 Eh       0.59 kcal/mol
-----------------------------------------------------------------------
Total Enthalpy                    ...   -691.42273202 Eh


Note: Only C1 symmetry has been detected, increase convergence thresholds 
      if your molecule has a higher symmetry. Symmetry factor of 1.0 is   
      used for the rotational entropy correction. 
 

Note: Rotational entropy computed according to Herzberg 
Infrared and Raman Spectra, Chapter V,1, Van Nostrand Reinhold, 1945 
Point Group:  C1, Symmetry Number:   1  
Rotational constants in cm-1:     0.022981     0.022951     0.019518 

Vibrational entropy computed according to the QRRHO of S. Grimme
Chem.Eur.J. 2012 18 9955


-------
ENTROPY
-------

The entropy contributions are T*S = T*(S(el)+S(vib)+S(rot)+S(trans))
     S(el)   - electronic entropy
     S(vib)  - vibrational entropy
     S(rot)  - rotational entropy
     S(trans)- translational entropy
The entropies will be listed as multiplied by the temperature to get
units of energy

Electronic entropy                ...      0.00000000 Eh      0.00 kcal/mol
Vibrational entropy               ...      0.02278803 Eh     14.30 kcal/mol
Rotational entropy                ...      0.01493225 Eh      9.37 kcal/mol
Translational entropy             ...      0.02018597 Eh     12.67 kcal/mol
-----------------------------------------------------------------------
Final entropy term                ...      0.05790625 Eh     36.34 kcal/mol

In case the symmetry of your molecule has not been determined correctly
or in case you have a reason to use a different symmetry number we print 
out the resulting rotational entropy values for sn=1,12 :
 --------------------------------------------------------
|  sn= 1 | S(rot)=       0.01493225 Eh      9.37 kcal/mol|
|  sn= 2 | S(rot)=       0.01427779 Eh      8.96 kcal/mol|
|  sn= 3 | S(rot)=       0.01389496 Eh      8.72 kcal/mol|
|  sn= 4 | S(rot)=       0.01362334 Eh      8.55 kcal/mol|
|  sn= 5 | S(rot)=       0.01341265 Eh      8.42 kcal/mol|
|  sn= 6 | S(rot)=       0.01324050 Eh      8.31 kcal/mol|
|  sn= 7 | S(rot)=       0.01309496 Eh      8.22 kcal/mol|
|  sn= 8 | S(rot)=       0.01296888 Eh      8.14 kcal/mol|
|  sn= 9 | S(rot)=       0.01285767 Eh      8.07 kcal/mol|
|  sn=10 | S(rot)=       0.01275819 Eh      8.01 kcal/mol|
|  sn=11 | S(rot)=       0.01266820 Eh      7.95 kcal/mol|
|  sn=12 | S(rot)=       0.01258605 Eh      7.90 kcal/mol|
 --------------------------------------------------------


-------------------
GIBBS FREE ENERGY
-------------------

The Gibbs free energy is G = H - T*S

Total enthalpy                    ...   -691.42273202 Eh 
Total entropy correction          ...     -0.05790625 Eh    -36.34 kcal/mol
-----------------------------------------------------------------------
Final Gibbs free energy         ...   -691.48063827 Eh

For completeness - the Gibbs free energy minus the electronic energy
G-E(el)                           ...      0.03736789 Eh     23.45 kcal/mol


Timings for individual modules:

Sum of individual times         ...     2689.841 sec (=  44.831 min)
GTO integral calculation        ...       22.728 sec (=   0.379 min)   0.8 %
SCF iterations                  ...      963.276 sec (=  16.055 min)  35.8 %
SCF Gradient evaluation         ...      304.750 sec (=   5.079 min)  11.3 %
Geometry relaxation             ...        0.619 sec (=   0.010 min)   0.0 %
Analytical frequency calculation...     1398.468 sec (=  23.308 min)  52.0 %
                             ****ORCA TERMINATED NORMALLY****
TOTAL RUN TIME: 0 days 0 hours 44 minutes 52 seconds 407 msec
