
                                 *****************
                                 * O   R   C   A *
                                 *****************

                                            #,                                       
                                            ###                                      
                                            ####                                     
                                            #####                                    
                                            ######                                   
                                           ########,                                 
                                     ,,################,,,,,                         
                               ,,#################################,,                 
                          ,,##########################################,,             
                       ,#########################################, ''#####,          
                    ,#############################################,,   '####,        
                  ,##################################################,,,,####,       
                ,###########''''           ''''###############################       
              ,#####''   ,,,,##########,,,,          '''####'''          '####       
            ,##' ,,,,###########################,,,                        '##       
           ' ,,###''''                  '''############,,,                           
         ,,##''                                '''############,,,,        ,,,,,,###''
      ,#''                                            '''#######################'''  
     '                                                          ''''####''''         
             ,#######,   #######,   ,#######,      ##                                
            ,#'     '#,  ##    ##  ,#'     '#,    #''#        ######   ,####,        
            ##       ##  ##   ,#'  ##            #'  '#       #        #'  '#        
            ##       ##  #######   ##           ,######,      #####,   #    #        
            '#,     ,#'  ##    ##  '#,     ,#' ,#      #,         ##   #,  ,#        
             '#######'   ##     ##  '#######'  #'      '#     #####' # '####'        



                  #######################################################
                  #                        -***-                        #
                  #          Department of theory and spectroscopy      #
                  #    Directorship and core code : Frank Neese         #
                  #        Max Planck Institute fuer Kohlenforschung    #
                  #                Kaiser Wilhelm Platz 1               #
                  #                 D-45470 Muelheim/Ruhr               #
                  #                      Germany                        #
                  #                                                     #
                  #                  All rights reserved                #
                  #                        -***-                        #
                  #######################################################



                         Program Version 5.0.4 -  RELEASE  -

 With contributions from (in alphabetic order):
   Daniel Aravena         : Magnetic Suceptibility
   Michael Atanasov       : Ab Initio Ligand Field Theory (pilot matlab implementation)
   Alexander A. Auer      : GIAO ZORA, VPT2 properties, NMR spectrum
   Ute Becker             : Parallelization
   Giovanni Bistoni       : ED, misc. LED, open-shell LED, HFLD
   Martin Brehm           : Molecular dynamics
   Dmytro Bykov           : SCF Hessian
   Vijay G. Chilkuri      : MRCI spin determinant printing, contributions to CSF-ICE
   Dipayan Datta          : RHF DLPNO-CCSD density
   Achintya Kumar Dutta   : EOM-CC, STEOM-CC
   Dmitry Ganyushin       : Spin-Orbit,Spin-Spin,Magnetic field MRCI
   Miquel Garcia          : C-PCM and meta-GGA Hessian, CC/C-PCM, Gaussian charge scheme
   Yang Guo               : DLPNO-NEVPT2, F12-NEVPT2, CIM, IAO-localization
   Andreas Hansen         : Spin unrestricted coupled pair/coupled cluster methods
   Benjamin Helmich-Paris : MC-RPA, TRAH-SCF, COSX integrals
   Lee Huntington         : MR-EOM, pCC
   Robert Izsak           : Overlap fitted RIJCOSX, COSX-SCS-MP3, EOM
   Marcus Kettner         : VPT2
   Christian Kollmar      : KDIIS, OOCD, Brueckner-CCSD(T), CCSD density, CASPT2, CASPT2-K
   Simone Kossmann        : Meta GGA functionals, TD-DFT gradient, OOMP2, MP2 Hessian
   Martin Krupicka        : Initial AUTO-CI
   Lucas Lang             : DCDCAS
   Marvin Lechner         : AUTO-CI (C++ implementation), FIC-MRCC
   Dagmar Lenk            : GEPOL surface, SMD
   Dimitrios Liakos       : Extrapolation schemes; Compound Job, initial MDCI parallelization
   Dimitrios Manganas     : Further ROCIS development; embedding schemes
   Dimitrios Pantazis     : SARC Basis sets
   Anastasios Papadopoulos: AUTO-CI, single reference methods and gradients
   Taras Petrenko         : DFT Hessian,TD-DFT gradient, ASA, ECA, R-Raman, ABS, FL, XAS/XES, NRVS
   Peter Pinski           : DLPNO-MP2, DLPNO-MP2 Gradient
   Christoph Reimann      : Effective Core Potentials
   Marius Retegan         : Local ZFS, SOC
   Christoph Riplinger    : Optimizer, TS searches, QM/MM, DLPNO-CCSD(T), (RO)-DLPNO pert. Triples
   Tobias Risthaus        : Range-separated hybrids, TD-DFT gradient, RPA, STAB
   Michael Roemelt        : Original ROCIS implementation
   Masaaki Saitow         : Open-shell DLPNO-CCSD energy and density
   Barbara Sandhoefer     : DKH picture change effects
   Avijit Sen             : IP-ROCIS
   Kantharuban Sivalingam : CASSCF convergence, NEVPT2, FIC-MRCI
   Bernardo de Souza      : ESD, SOC TD-DFT
   Georgi Stoychev        : AutoAux, RI-MP2 NMR, DLPNO-MP2 response
   Willem Van den Heuvel  : Paramagnetic NMR
   Boris Wezisla          : Elementary symmetry handling
   Frank Wennmohs         : Technical directorship


 We gratefully acknowledge several colleagues who have allowed us to
 interface, adapt or use parts of their codes:
   Stefan Grimme, W. Hujo, H. Kruse, P. Pracht,  : VdW corrections, initial TS optimization,
                  C. Bannwarth, S. Ehlert          DFT functionals, gCP, sTDA/sTD-DF
   Ed Valeev, F. Pavosevic, A. Kumar             : LibInt (2-el integral package), F12 methods
   Garnet Chan, S. Sharma, J. Yang, R. Olivares  : DMRG
   Ulf Ekstrom                                   : XCFun DFT Library
   Mihaly Kallay                                 : mrcc  (arbitrary order and MRCC methods)
   Jiri Pittner, Ondrej Demel                    : Mk-CCSD
   Frank Weinhold                                : gennbo (NPA and NBO analysis)
   Christopher J. Cramer and Donald G. Truhlar   : smd solvation model
   Lars Goerigk                                  : TD-DFT with DH, B97 family of functionals
   V. Asgeirsson, H. Jonsson                     : NEB implementation
   FAccTs GmbH                                   : IRC, NEB, NEB-TS, DLPNO-Multilevel, CI-OPT
                                                   MM, QMMM, 2- and 3-layer-ONIOM, Crystal-QMMM,
                                                   LR-CPCM, SF, NACMEs, symmetry and pop. for TD-DFT,
                                                   nearIR, NL-DFT gradient (VV10), updates on ESD,
                                                   ML-optimized integration grids
   S Lehtola, MJT Oliveira, MAL Marques          : LibXC Library
   Liviu Ungur et al                             : ANISO software


 Your calculation uses the libint2 library for the computation of 2-el integrals
 For citations please refer to: http://libint.valeyev.net

 Your ORCA version has been built with support for libXC version: 5.1.0
 For citations please refer to: https://tddft.org/programs/libxc/

 This ORCA versions uses:
   CBLAS   interface :  Fast vector & matrix operations
   LAPACKE interface :  Fast linear algebra routines
   Shared memory     :  Shared parallel matrices


================================================================================

cite the ECPs for Mo [Def2-ECP] as follows:
Ce-Yb(ecp-28): M. Dolg, H. Stoll, H.Preuss, J. Chem. Phys., 1989, 90, 1730-1734.
Y-Cd(ecp-28), Hf-Hg(ecp-46): D. Andrae,U. Haeussermann, M. Dolg, H. Stoll, H. Preuss, Theor. Chim. Acta, 1990, 77, 123-141.
In-Sb(ecp-28), Tl-Bi(ecp-46): B. Metz, H. Stoll, M. Dolg, J. Chem. Phys., 2000, 113, 2563-2569.
Te-Xe(ecp-28), Po-Rn(ecp-46): K. A. Peterson, D. Figgen, E. Goll, H. Stoll, M. Dolg, J. Chem. Phys., 2003, 119, 11113-11123.
Rb(ecp-28), Cs(ecp-46): T. Leininger, A. Nicklass, W. Kuechle, H. Stoll, M. Dolg, A. Bergner, Chem. Phys. Lett., 1996, 255, 274-280.
Sr(ecp-28), Ba(ecp-46): M. Kaupp, P. V. Schleyer, H. Stoll and H. Preuss, J. Chem. Phys., 1991, 94, 1360-1366.
La(ecp-46): M. Dolg, H. Stoll, A. Savin, H. Preuss, Theor. Chim. Acta, 1989, 75, 173-194.
Lu(ecp-28): X. Cao, M. Dolg, J. Chem. Phys., 2001, 115, 7348-7355.

ECP parameters for Mo [Def2-ECP] have been obtained from:
TURBOMOLE (7.0.2)

----- Orbital basis set information -----
Your calculation utilizes the basis: def2-TZVPD
   F. Weigend and R. Ahlrichs, Phys. Chem. Chem. Phys. 7, 3297 (2005).
   D. Rappoport and F. Furche, J. Chem. Phys. 133 134105 (2010).

----- AuxJ basis set information -----
Your calculation utilizes the auxiliary basis: def2/J
   F. Weigend, Phys. Chem. Chem. Phys. 8, 1057 (2006).

================================================================================
                                        WARNINGS
                       Please study these warnings very carefully!
================================================================================


WARNING: Geometry Optimization
  ===> : Switching off AutoStart
         For restart on a previous wavefunction, please use MOREAD

INFO   : the flag for use of the SHARK integral package has been found!

================================================================================
                                       INPUT FILE
================================================================================
NAME = MoCO5F-.inp
|  1> !B3LYP def2-TZVPD OPT FREQ TightSCF PAL8
|  2> 
|  3> %scf
|  4>   MaxIter 300
|  5> end
|  6> 
|  7> * xyz -1 1 
|  8> Mo        -1.31350        0.80310       -0.04608
|  9> C         -1.29468        2.94876        0.06394
| 10> C         -3.46135        0.82385       -0.09599
| 11> C          0.83438        0.78176        0.00232
| 12> C         -1.33254       -1.34242       -0.15758
| 13> O         -1.28475        4.07521        0.12132
| 14> O          1.96204        0.77050        0.02744
| 15> O         -1.34270       -2.46890       -0.21615
| 16> O         -4.58900        0.83447       -0.12234
| 17> C         -1.26289        0.91449       -2.19106
| 18> O         -1.23618        0.97331       -3.31720
| 19> F         -1.35967        0.70159        1.92187
| 20> **                         ****END OF INPUT****
================================================================================

                       *****************************
                       * Geometry Optimization Run *
                       *****************************

Geometry optimization settings:
Update method            Update   .... BFGS
Choice of coordinates    CoordSys .... Z-matrix Internals
Initial Hessian          InHess   .... Almoef's Model

Convergence Tolerances:
Energy Change            TolE     ....  5.0000e-06 Eh
Max. Gradient            TolMAXG  ....  3.0000e-04 Eh/bohr
RMS Gradient             TolRMSG  ....  1.0000e-04 Eh/bohr
Max. Displacement        TolMAXD  ....  4.0000e-03 bohr
RMS Displacement         TolRMSD  ....  2.0000e-03 bohr
Strict Convergence                ....  False
------------------------------------------------------------------------------
                        ORCA OPTIMIZATION COORDINATE SETUP
------------------------------------------------------------------------------

The optimization will be done in new redundant internal coordinates
Making redundant internal coordinates   ...  (new redundants) done
Evaluating the initial hessian          ...  (Almloef) done
Evaluating the coordinates              ...  done
Calculating the B-matrix                .... done
Calculating the G-matrix                .... done
Diagonalizing the G-matrix              .... done
The first mode is                       ....    3
The number of degrees of freedom        ....   30

    -----------------------------------------------------------------
                    Redundant Internal Coordinates


    -----------------------------------------------------------------
         Definition                    Initial Value    Approx d2E/dq
    -----------------------------------------------------------------
      1. B(C   1,Mo  0)                  2.1486         0.389607   
      2. B(C   2,Mo  0)                  2.1485         0.389652   
      3. B(C   3,Mo  0)                  2.1485         0.389650   
      4. B(C   4,Mo  0)                  2.1485         0.389696   
      5. B(O   5,C   1)                  1.1280         1.465389   
      6. B(O   6,C   3)                  1.1280         1.465164   
      7. B(O   7,C   4)                  1.1280         1.464887   
      8. B(O   8,C   2)                  1.1280         1.465100   
      9. B(C   9,Mo  0)                  2.1485         0.389743   
     10. B(O  10,C   9)                  1.1280         1.465189   
     11. B(F  11,Mo  0)                  1.9711         0.622261   
     12. A(C   3,Mo  0,C   9)           89.9688         0.462012   
     13. A(C   2,Mo  0,C   9)           89.9918         0.462012   
     14. A(C   2,Mo  0,F  11)           90.0157         0.499640   
     15. A(C   3,Mo  0,C   4)           90.0063         0.462001   
     16. A(C   4,Mo  0,C   9)           90.0098         0.462021   
     17. A(C   2,Mo  0,C   4)           89.9759         0.462002   
     18. A(C   4,Mo  0,F  11)           90.0102         0.499650   
     19. A(C   1,Mo  0,C   2)           90.0173         0.461983   
     20. A(C   1,Mo  0,F  11)           90.0292         0.499629   
     21. A(C   3,Mo  0,F  11)           90.0237         0.499639   
     22. A(C   1,Mo  0,C   3)           90.0005         0.461982   
     23. A(C   1,Mo  0,C   9)           89.9508         0.462002   
     24. L(Mo  0,C   1,O   5,C   9, 2) 180.0029         0.521267   
     25. L(Mo  0,C   1,O   5,C   9, 1) 179.9807         0.521267   
     26. L(Mo  0,C   2,O   8,C   4, 2) 180.0095         0.521259   
     27. L(Mo  0,C   2,O   8,C   4, 1) 179.9857         0.521259   
     28. L(Mo  0,C   3,O   6,C   9, 1) 179.9854         0.521263   
     29. L(Mo  0,C   3,O   6,C   9, 2) 180.0051         0.521263   
     30. L(Mo  0,C   4,O   7,C   2, 2) 179.9983         0.521256   
     31. L(Mo  0,C   4,O   7,C   2, 1) 179.9917         0.521256   
     32. L(Mo  0,C   9,O  10,C   1, 2) 179.9903         0.521288   
     33. L(Mo  0,C   9,O  10,C   1, 1) 179.9827         0.521288   
    -----------------------------------------------------------------

Number of atoms                         .... 12
Number of degrees of freedom            .... 33

         *************************************************************
         *                GEOMETRY OPTIMIZATION CYCLE   1            *
         *************************************************************
---------------------------------
CARTESIAN COORDINATES (ANGSTROEM)
---------------------------------
  Mo    -1.313500    0.803100   -0.046080
  C     -1.294680    2.948760    0.063940
  C     -3.461350    0.823850   -0.095990
  C      0.834380    0.781760    0.002320
  C     -1.332540   -1.342420   -0.157580
  O     -1.284750    4.075210    0.121320
  O      1.962040    0.770500    0.027440
  O     -1.342700   -2.468900   -0.216150
  O     -4.589000    0.834470   -0.122340
  C     -1.262890    0.914490   -2.191060
  O     -1.236180    0.973310   -3.317200
  F     -1.359670    0.701590    1.921870

----------------------------
CARTESIAN COORDINATES (A.U.)
----------------------------
  NO LB      ZA    FRAG     MASS         X           Y           Z
   0 Mo   14.0000*   0    95.940   -2.482155    1.517639   -0.087079
   1 C     6.0000    0    12.011   -2.446591    5.572349    0.120829
   2 C     6.0000    0    12.011   -6.541004    1.556851   -0.181395
   3 C     6.0000    0    12.011    1.576750    1.477312    0.004384
   4 C     6.0000    0    12.011   -2.518136   -2.536806   -0.297783
   5 O     8.0000    0    15.999   -2.427826    7.701031    0.229262
   6 O     8.0000    0    15.999    3.707718    1.456034    0.051854
   7 O     8.0000    0    15.999   -2.537335   -4.665545   -0.408464
   8 O     8.0000    0    15.999   -8.671953    1.576920   -0.231189
   9 C     6.0000    0    12.011   -2.386516    1.728136   -4.140503
  10 O     8.0000    0    15.999   -2.336042    1.839289   -6.268600
  11 F     9.0000    0    18.998   -2.569404    1.325813    3.631808
* core charge reduced due to ECP

--------------------------------
INTERNAL COORDINATES (ANGSTROEM)
--------------------------------
 Mo     0   0   0     0.000000000000     0.00000000     0.00000000
 C      1   0   0     2.148561246137     0.00000000     0.00000000
 C      1   2   0     2.148530007493    90.01726712     0.00000000
 C      1   2   3     2.148531230864    90.00050038   179.96057915
 C      1   2   3     2.148499672330   179.95995791    80.19576266
 O      2   1   3     1.127954197563   179.98058743   263.86159058
 O      4   1   2     1.127995956376   179.98497213   256.10025432
 O      5   1   3     1.128047366426   179.99158525     8.44260141
 O      3   1   2     1.128007814423   179.98421491   154.78784859
 C      1   2   3     2.148466500693    89.95076296    89.99173586
 O     10   1   2     1.127991363486   179.98142016    21.78162527
 F      1   2   3     1.971107087781    90.02923620   269.98429083

---------------------------
INTERNAL COORDINATES (A.U.)
---------------------------
 Mo     0   0   0     0.000000000000     0.00000000     0.00000000
 C      1   0   0     4.060192337155     0.00000000     0.00000000
 C      1   2   0     4.060133304674    90.01726712     0.00000000
 C      1   2   3     4.060135616511    90.00050038   179.96057915
 C      1   2   3     4.060075979522   179.95995791    80.19576266
 O      2   1   3     2.131524525001   179.98058743   263.86159058
 O      4   1   2     2.131603437721   179.98497213   256.10025432
 O      5   1   3     2.131700588636   179.99158525     8.44260141
 O      3   1   2     2.131625846183   179.98421491   154.78784859
 C      1   2   3     4.060013294214    89.95076296    89.99173586
 O     10   1   2     2.131594758418   179.98142016    21.78162527
 F      1   2   3     3.724852576537    90.02923620   269.98429083

---------------------
BASIS SET INFORMATION
---------------------
There are 4 groups of distinct atoms

 Group   1 Type Mo  : 7s7p5d1f contracted to 6s4p3d1f pattern {211111/4111/311/1}
 Group   2 Type C   : 12s6p3d1f contracted to 6s3p3d1f pattern {621111/411/111/1}
 Group   3 Type O   : 12s7p3d1f contracted to 6s4p3d1f pattern {621111/4111/111/1}
 Group   4 Type F   : 12s7p3d1f contracted to 6s4p3d1f pattern {621111/4111/111/1}

Atom   0Mo   basis set group =>   1
Atom   1C    basis set group =>   2
Atom   2C    basis set group =>   2
Atom   3C    basis set group =>   2
Atom   4C    basis set group =>   2
Atom   5O    basis set group =>   3
Atom   6O    basis set group =>   3
Atom   7O    basis set group =>   3
Atom   8O    basis set group =>   3
Atom   9C    basis set group =>   2
Atom  10O    basis set group =>   3
Atom  11F    basis set group =>   4
---------------------------------
AUXILIARY/J BASIS SET INFORMATION
---------------------------------
There are 4 groups of distinct atoms

 Group   1 Type Mo  : 11s5p5d3f3g contracted to 8s5p5d2f3g pattern {41111111/11111/11111/21/111}
 Group   2 Type C   : 12s5p4d2f1g contracted to 6s4p3d1f1g pattern {711111/2111/211/2/1}
 Group   3 Type O   : 12s5p4d2f1g contracted to 6s4p3d1f1g pattern {711111/2111/211/2/1}
 Group   4 Type F   : 12s5p4d2f1g contracted to 6s4p3d1f1g pattern {711111/2111/211/2/1}

Atom   0Mo   basis set group =>   1
Atom   1C    basis set group =>   2
Atom   2C    basis set group =>   2
Atom   3C    basis set group =>   2
Atom   4C    basis set group =>   2
Atom   5O    basis set group =>   3
Atom   6O    basis set group =>   3
Atom   7O    basis set group =>   3
Atom   8O    basis set group =>   3
Atom   9C    basis set group =>   2
Atom  10O    basis set group =>   3
Atom  11F    basis set group =>   4
-------------------------
ECP PARAMETER INFORMATION
-------------------------

 Group 1, Type Mo ECP Def2-ECP (replacing 28 core electrons, lmax=3)

Atom   0Mo   ECP group =>   1



           ************************************************************
           *        Program running with 8 parallel MPI-processes     *
           *              working on a common directory               *
           ************************************************************
------------------------------------------------------------------------------
                           ORCA GTO INTEGRAL CALCULATION
                           -- RI-GTO INTEGRALS CHOSEN --
------------------------------------------------------------------------------
------------------------------------------------------------------------------
                   ___                                                        
                  /   \      - P O W E R E D   B Y -                         
                 /     \                                                     
                 |  |  |   _    _      __       _____    __    __             
                 |  |  |  | |  | |    /  \     |  _  \  |  |  /  |          
                  \  \/   | |  | |   /    \    | | | |  |  | /  /          
                 / \  \   | |__| |  /  /\  \   | |_| |  |  |/  /          
                |  |  |   |  __  | /  /__\  \  |    /   |      \           
                |  |  |   | |  | | |   __   |  |    \   |  |\   \          
                \     /   | |  | | |  |  |  |  | |\  \  |  | \   \       
                 \___/    |_|  |_| |__|  |__|  |_| \__\ |__|  \__/        
                                                                              
                      - O R C A' S   B I G   F R I E N D -                    
                                      &                                       
                       - I N T E G R A L  F E E D E R -                       
                                                                              
 v1 FN, 2020, v2 2021                                                         
------------------------------------------------------------------------------


Reading SHARK input file MoCO5F-.SHARKINP.tmp ... ok
----------------------
SHARK INTEGRAL PACKAGE
----------------------

Number of atoms                             ...     12
Number of basis functions                   ...    465
Number of shells                            ...    163
Maximum angular momentum                    ...      3
Integral batch strategy                     ... SHARK/LIBINT Hybrid
RI-J (if used) integral strategy            ... SPLIT-RIJ (Revised 2003 algorithm where possible)
Printlevel                                  ...      1
Contraction scheme used                     ... SEGMENTED contraction
Coulomb Range Separation                    ... NOT USED
Exchange Range Separation                   ... NOT USED
Finite Nucleus Model                        ... NOT USED
Auxiliary Coulomb fitting basis             ... AVAILABLE
   # of basis functions in Aux-J            ...    628
   # of shells in Aux-J                     ...    188
   Maximum angular momentum in Aux-J        ...      4
Auxiliary J/K fitting basis                 ... NOT available
Auxiliary Correlation fitting basis         ... NOT available
Auxiliary 'external' fitting basis          ... NOT available
Integral threshold                          ...     2.500000e-11
Primitive cut-off                           ...     2.500000e-12
Primitive pair pre-selection threshold      ...     2.500000e-12

Calculating pre-screening integrals         ... done (  0.1 sec) Dimension = 163
Organizing shell pair data                  ... done (  0.2 sec)
Shell pair information
Total number of shell pairs                 ...     13366
Shell pairs after pre-screening             ...     11545
Total number of primitive shell pairs       ...     36298
Primitive shell pairs kept                  ...     23159
          la=0 lb=0:   2098 shell pairs
          la=1 lb=0:   2775 shell pairs
          la=1 lb=1:    898 shell pairs
          la=2 lb=0:   2194 shell pairs
          la=2 lb=1:   1419 shell pairs
          la=2 lb=2:    599 shell pairs
          la=3 lb=0:    650 shell pairs
          la=3 lb=1:    471 shell pairs
          la=3 lb=2:    382 shell pairs
          la=3 lb=3:     59 shell pairs

Calculating one electron integrals          ... done (  0.0 sec)
Calculating ECP integrals                   ... done (  1.2 sec)
Calculating RI/J V-Matrix + Cholesky decomp.... done (  0.0 sec)
Calculating Nuclear repulsion               ... done (  0.0 sec) ENN=    683.854465814483 Eh

SHARK setup successfully completed in   1.7 seconds

Maximum memory used throughout the entire GTOINT-calculation: 23.1 MB


           ************************************************************
           *        Program running with 8 parallel MPI-processes     *
           *              working on a common directory               *
           ************************************************************
-------------------------------------------------------------------------------
                                 ORCA SCF
-------------------------------------------------------------------------------

------------
SCF SETTINGS
------------
Hamiltonian:
 Density Functional     Method          .... DFT(GTOs)
 Exchange Functional    Exchange        .... B88
   X-Alpha parameter    XAlpha          ....  0.666667
   Becke's b parameter  XBeta           ....  0.004200
 Correlation Functional Correlation     .... LYP
 LDA part of GGA corr.  LDAOpt          .... VWN-5
 Gradients option       PostSCFGGA      .... off
 Hybrid DFT is turned on
   Fraction HF Exchange ScalHFX         ....  0.200000
   Scaling of DF-GGA-X  ScalDFX         ....  0.720000
   Scaling of DF-GGA-C  ScalDFC         ....  0.810000
   Scaling of DF-LDA-C  ScalLDAC        ....  1.000000
   Perturbative correction              ....  0.000000
   Density functional embedding theory  .... OFF
   NL short-range parameter             ....  4.800000
 RI-approximation to the Coulomb term is turned on
   Number of AuxJ basis functions       .... 628
   RIJ-COSX (HFX calculated with COS-X)).... on


General Settings:
 Integral files         IntName         .... MoCO5F-
 Hartree-Fock type      HFTyp           .... RHF
 Total Charge           Charge          ....   -1
 Multiplicity           Mult            ....    1
 Number of Electrons    NEL             ....   94
 Basis Dimension        Dim             ....  465
 Nuclear Repulsion      ENuc            ....    683.8544658145 Eh

Convergence Acceleration:
 DIIS                   CNVDIIS         .... on
   Start iteration      DIISMaxIt       ....    12
   Startup error        DIISStart       ....  0.200000
   # of expansion vecs  DIISMaxEq       ....     5
   Bias factor          DIISBfac        ....   1.050
   Max. coefficient     DIISMaxC        ....  10.000
 Trust-Rad. Augm. Hess. CNVTRAH         .... auto
   Auto Start mean grad. ratio tolernc. ....  1.125000
   Auto Start start iteration           ....    20
   Auto Start num. interpolation iter.  ....    10
   Max. Number of Micro iterations      ....    16
   Max. Number of Macro iterations      .... Maxiter - #DIIS iter
   Number of Davidson start vectors     ....     2
   Converg. threshold I  (grad. norm)   ....   1.000e-05
   Converg. threshold II (energy diff.) ....   1.000e-08
   Grad. Scal. Fac. for Micro threshold ....   0.100
   Minimum threshold for Micro iter.    ....   0.010
   NR start threshold (gradient norm)   ....   0.001
   Initial trust radius                 ....   0.400
   Minimum AH scaling param. (alpha)    ....   1.000
   Maximum AH scaling param. (alpha)    .... 1000.000
   Orbital update algorithm             .... Taylor
   White noise on init. David. guess    .... on
   Maximum white noise                  ....   0.010
   Quad. conv. algorithm                .... NR
 SOSCF                  CNVSOSCF        .... off
 Level Shifting         CNVShift        .... on
   Level shift para.    LevelShift      ....    0.2500
   Turn off err/grad.   ShiftErr        ....    0.0010
 Zerner damping         CNVZerner       .... off
 Static damping         CNVDamp         .... on
   Fraction old density DampFac         ....    0.7000
   Max. Damping (<1)    DampMax         ....    0.9800
   Min. Damping (>=0)   DampMin         ....    0.0000
   Turn off err/grad.   DampErr         ....    0.1000
 Fernandez-Rico         CNVRico         .... off

SCF Procedure:
 Maximum # iterations   MaxIter         ....   300
 SCF integral mode      SCFMode         .... Direct
   Integral package                     .... SHARK and LIBINT hybrid scheme
 Reset frequency        DirectResetFreq ....    20
 Integral Threshold     Thresh          ....  2.500e-11 Eh
 Primitive CutOff       TCut            ....  2.500e-12 Eh

Convergence Tolerance:
 Convergence Check Mode ConvCheckMode   .... Total+1el-Energy
 Convergence forced     ConvForced      .... 0
 Energy Change          TolE            ....  1.000e-08 Eh
 1-El. energy change                    ....  1.000e-05 Eh
 DIIS Error             TolErr          ....  5.000e-07


Diagonalization of the overlap matrix:
Smallest eigenvalue                        ... 1.459e-05
Time for diagonalization                   ...    0.055 sec
Threshold for overlap eigenvalues          ... 1.000e-08
Number of eigenvalues below threshold      ... 0
Time for construction of square roots      ...    0.095 sec
Total time needed                          ...    0.150 sec

Time for model grid setup =    0.184 sec

------------------------------
INITIAL GUESS: MODEL POTENTIAL
------------------------------
Loading Hartree-Fock densities                     ... done
  calling C:\orca_5_0_4\orca MoCO5F-_atom42.inp > MoCO5F-_atom42.out in order to generate an atomic fitting density for atom 0 (Mo with ECP) on-the-fly... 
    atom 0 (Mo), assumed electronic state with S=5: 1s2 2s2 2p6 3s2 3p6 4s2 3d10 4p6 5s2 4d4           ... done
Calculating cut-offs                               ... done
Initializing the effective Hamiltonian             ... done
Setting up the integral package (SHARK)            ... done
Starting the Coulomb interaction                   ... done (   0.1 sec)
Reading the grid                                   ... done
Mapping shells                                     ... done
Starting the XC term evaluation                    ... done (   0.2 sec)
  promolecular density results
     # of electrons  =    121.001782591
     EX              =   -196.315844681
     EC              =     -4.914881868
     EX+EC           =   -201.230726549
Transforming the Hamiltonian                       ... done (   0.1 sec)
Diagonalizing the Hamiltonian                      ... done (   0.1 sec)
Back transforming the eigenvectors                 ... done (   0.0 sec)
Now organizing SCF variables                       ... done
                      ------------------
                      INITIAL GUESS DONE (   2.0 sec)
                      ------------------
-------------------
DFT GRID GENERATION
-------------------

General Integration Accuracy     IntAcc      ... 4.388
Radial Grid Type                 RadialGrid  ... OptM3 with GC (2021)
Angular Grid (max. ang.)         AngularGrid ... 4 (Lebedev-302)
Angular grid pruning method      GridPruning ... 4 (adaptive)
Weight generation scheme         WeightScheme... Becke
Basis function cutoff            BFCut       ... 1.0000e-11
Integration weight cutoff        WCut        ... 1.0000e-14
Angular grids for H and He will be reduced by one unit
Partially contracted basis set               ... off
Rotationally invariant grid construction     ... off

Total number of grid points                  ...    81233
Total number of batches                      ...     1275
Average number of points per batch           ...       63
Average number of grid points per atom       ...     6769
Time for grid setup =    0.608 sec

--------------------
COSX GRID GENERATION
--------------------

GRIDX 1
-------
General Integration Accuracy     IntAcc      ... 3.816
Radial Grid Type                 RadialGrid  ... OptM3 with GC (2021)
Angular Grid (max. ang.)         AngularGrid ... 1 (Lebedev-50)
Angular grid pruning method      GridPruning ... 4 (adaptive)
Weight generation scheme         WeightScheme... Becke
Basis function cutoff            BFCut       ... 1.0000e-11
Integration weight cutoff        WCut        ... 1.0000e-14
Angular grids for H and He will be reduced by one unit
Partially contracted basis set               ... on
Rotationally invariant grid construction     ... off

Total number of grid points                  ...     9991
Total number of batches                      ...      163
Average number of points per batch           ...       61
Average number of grid points per atom       ...      833
UseSFitting                                  ... on

GRIDX 2
-------
General Integration Accuracy     IntAcc      ... 4.020
Radial Grid Type                 RadialGrid  ... OptM3 with GC (2021)
Angular Grid (max. ang.)         AngularGrid ... 2 (Lebedev-110)
Angular grid pruning method      GridPruning ... 4 (adaptive)
Weight generation scheme         WeightScheme... Becke
Basis function cutoff            BFCut       ... 1.0000e-11
Integration weight cutoff        WCut        ... 1.0000e-14
Angular grids for H and He will be reduced by one unit
Partially contracted basis set               ... on
Rotationally invariant grid construction     ... off

Total number of grid points                  ...    27053
Total number of batches                      ...      427
Average number of points per batch           ...       63
Average number of grid points per atom       ...     2254
UseSFitting                                  ... on

GRIDX 3
-------
General Integration Accuracy     IntAcc      ... 4.338
Radial Grid Type                 RadialGrid  ... OptM3 with GC (2021)
Angular Grid (max. ang.)         AngularGrid ... 3 (Lebedev-194)
Angular grid pruning method      GridPruning ... 4 (adaptive)
Weight generation scheme         WeightScheme... Becke
Basis function cutoff            BFCut       ... 1.0000e-11
Integration weight cutoff        WCut        ... 1.0000e-14
Angular grids for H and He will be reduced by one unit
Partially contracted basis set               ... on
Rotationally invariant grid construction     ... off

Total number of grid points                  ...    57675
Total number of batches                      ...      909
Average number of points per batch           ...       63
Average number of grid points per atom       ...     4806
UseSFitting                                  ... on

Time for X-Grid setup             =    1.447 sec

--------------
SCF ITERATIONS
--------------
ITER       Energy         Delta-E        Max-DP      RMS-DP      [F,P]     Damp
               ***  Starting incremental Fock matrix formation  ***
  0   -734.4511864567   0.000000000000 0.15003878  0.00112350  0.4322458 0.7000
  1   -734.6743579254  -0.223171468717 0.09237800  0.00070184  0.2779980 0.7000
                               ***Turning on DIIS***
  2   -734.7289774421  -0.054619516681 0.04151443  0.00034905  0.1806648 0.7000
  3   -734.7723671305  -0.043389688392 0.03947263  0.00022140  0.1268805 0.7000
  4   -734.8055663181  -0.033199187586 0.06424325  0.00040817  0.0928044 0.0000
  5   -734.8782973515  -0.072731033375 0.00838939  0.00012607  0.0111956 0.0000
  6   -734.8787956007  -0.000498249216 0.00439719  0.00005925  0.0043756 0.0000
  7   -734.8789201266  -0.000124525953 0.00172191  0.00002475  0.0028816 0.0000
  8   -734.8789419256  -0.000021798964 0.00204930  0.00002758  0.0003381 0.0000
               *** Restarting incremental Fock matrix formation ***
                                   *** Resetting DIIS ***
  9   -734.8790225771  -0.000080651513 0.00198426  0.00003233  0.0007213 0.0000
 10   -734.8789874553   0.000035121844 0.00093740  0.00000771  0.0032644 0.0000
 11   -734.8790170187  -0.000029563462 0.00040587  0.00000376  0.0013851 0.0000
 12   -734.8790232528  -0.000006234071 0.00042261  0.00000540  0.0005931 0.0000
 13   -734.8790250675  -0.000001814719 0.00012401  0.00000177  0.0000907 0.0000
 14   -734.8790251044  -0.000000036840 0.00005073  0.00000067  0.0000540 0.0000
 15   -734.8790251344  -0.000000030084 0.00019375  0.00000185  0.0000120 0.0000
 16   -734.8790251275   0.000000006944 0.00005348  0.00000084  0.0000149 0.0000
                 **** Energy Check signals convergence ****

               *****************************************************
               *                     SUCCESS                       *
               *           SCF CONVERGED AFTER  17 CYCLES          *
               *****************************************************

Old exchange energy                            =    -16.821713305 Eh
New exchange energy                            =    -16.821703208 Eh
Exchange energy change after final integration =      0.000010097 Eh
Total energy after final integration           =   -734.879015031 Eh
Final COS-X integration done in                =     8.348 sec

----------------
TOTAL SCF ENERGY
----------------

Total Energy       :         -734.87901503 Eh          -19997.07463 eV

Components:
Nuclear Repulsion  :          683.85446581 Eh           18608.62606 eV
Electronic Energy  :        -1418.73348085 Eh          -38605.70069 eV
One Electron Energy:        -2405.70317274 Eh          -65462.51138 eV
Two Electron Energy:          986.96969189 Eh           26856.81069 eV
Max COSX asymmetry :            0.00004064 Eh               0.00111 eV

Virial components:
Potential Energy   :        -1422.69344211 Eh          -38713.45671 eV
Kinetic Energy     :          687.81442708 Eh           18716.38208 eV
Virial Ratio       :            2.06842629


DFT components:
N(Alpha)           :       46.999833744074 electrons
N(Beta)            :       46.999833744074 electrons
N(Total)           :       93.999667488149 electrons
E(X)               :      -67.317845411643 Eh       
E(C)               :       -3.907854644228 Eh       
E(XC)              :      -71.225700055870 Eh       
DFET-embed. en.    :        0.000000000000 Eh       

---------------
SCF CONVERGENCE
---------------

  Last Energy change         ...   -9.2393e-10  Tolerance :   1.0000e-08
  Last MAX-Density change    ...    0.0000e+00  Tolerance :   1.0000e-07
  Last RMS-Density change    ...    0.0000e+00  Tolerance :   5.0000e-09
  Last DIIS Error            ...    2.7547e-06  Tolerance :   5.0000e-07

             **** THE GBW FILE WAS UPDATED (MoCO5F-.gbw) ****
             **** DENSITY MoCO5F-.scfp WAS UPDATED ****
             **** ENERGY FILE WAS UPDATED (MoCO5F-.en.tmp) ****
             **** THE GBW FILE WAS UPDATED (MoCO5F-.gbw) ****
             **** DENSITY MoCO5F-.scfp WAS UPDATED ****
----------------
ORBITAL ENERGIES
----------------

  NO   OCC          E(Eh)            E(eV) 
   0   2.0000     -24.405461      -664.1064 
   1   2.0000     -19.067422      -518.8509 
   2   2.0000     -19.067412      -518.8506 
   3   2.0000     -19.067410      -518.8506 
   4   2.0000     -19.067398      -518.8503 
   5   2.0000     -19.036425      -518.0075 
   6   2.0000     -10.137427      -275.8534 
   7   2.0000     -10.137425      -275.8534 
   8   2.0000     -10.137423      -275.8533 
   9   2.0000     -10.137419      -275.8532 
  10   2.0000     -10.112205      -275.1671 
  11   2.0000      -2.400828       -65.3298 
  12   2.0000      -1.401875       -38.1470 
  13   2.0000      -1.401868       -38.1468 
  14   2.0000      -1.398372       -38.0516 
  15   2.0000      -1.010716       -27.5030 
  16   2.0000      -1.010474       -27.4964 
  17   2.0000      -1.010470       -27.4963 
  18   2.0000      -1.010361       -27.4933 
  19   2.0000      -0.984151       -26.7801 
  20   2.0000      -0.891264       -24.2525 
  21   2.0000      -0.438345       -11.9280 
  22   2.0000      -0.429044       -11.6749 
  23   2.0000      -0.427581       -11.6351 
  24   2.0000      -0.427577       -11.6350 
  25   2.0000      -0.405667       -11.0388 
  26   2.0000      -0.336481        -9.1561 
  27   2.0000      -0.331427        -9.0186 
  28   2.0000      -0.330235        -8.9861 
  29   2.0000      -0.330230        -8.9860 
  30   2.0000      -0.329334        -8.9616 
  31   2.0000      -0.329325        -8.9614 
  32   2.0000      -0.327331        -8.9071 
  33   2.0000      -0.325986        -8.8705 
  34   2.0000      -0.323310        -8.7977 
  35   2.0000      -0.304566        -8.2877 
  36   2.0000      -0.304565        -8.2876 
  37   2.0000      -0.299601        -8.1526 
  38   2.0000      -0.271568        -7.3897 
  39   2.0000      -0.258725        -7.0403 
  40   2.0000      -0.258702        -7.0396 
  41   2.0000      -0.191869        -5.2210 
  42   2.0000      -0.179825        -4.8933 
  43   2.0000      -0.179816        -4.8930 
  44   2.0000      -0.072154        -1.9634 
  45   2.0000      -0.033372        -0.9081 
  46   2.0000      -0.033359        -0.9077 
  47   0.0000       0.085050         2.3143 
  48   0.0000       0.101289         2.7562 
  49   0.0000       0.101318         2.7570 
  50   0.0000       0.114371         3.1122 
  51   0.0000       0.117597         3.2000 
  52   0.0000       0.129620         3.5271 
  53   0.0000       0.129630         3.5274 
  54   0.0000       0.137016         3.7284 
  55   0.0000       0.139002         3.7824 
  56   0.0000       0.151917         4.1339 
  57   0.0000       0.151920         4.1340 
  58   0.0000       0.153650         4.1810 
  59   0.0000       0.162314         4.4168 
  60   0.0000       0.167093         4.5468 
  61   0.0000       0.168870         4.5952 
  62   0.0000       0.168872         4.5952 
  63   0.0000       0.179074         4.8729 
  64   0.0000       0.179918         4.8958 
  65   0.0000       0.179918         4.8958 
  66   0.0000       0.182475         4.9654 
  67   0.0000       0.182484         4.9657 
  68   0.0000       0.188773         5.1368 
  69   0.0000       0.198262         5.3950 
  70   0.0000       0.200746         5.4626 
  71   0.0000       0.208047         5.6612 
  72   0.0000       0.208069         5.6619 
  73   0.0000       0.216660         5.8956 
  74   0.0000       0.225309         6.1310 
  75   0.0000       0.229276         6.2389 
  76   0.0000       0.244588         6.6556 
  77   0.0000       0.244605         6.6560 
  78   0.0000       0.257280         7.0009 
  79   0.0000       0.260238         7.0814 
  80   0.0000       0.267933         7.2908 
  81   0.0000       0.267950         7.2913 
  82   0.0000       0.284045         7.7292 
  83   0.0000       0.301763         8.2114 
  84   0.0000       0.320883         8.7317 
  85   0.0000       0.320905         8.7323 
  86   0.0000       0.324346         8.8259 
  87   0.0000       0.327443         8.9102 
  88   0.0000       0.330852         9.0029 
  89   0.0000       0.350271         9.5313 
  90   0.0000       0.353169         9.6102 
  91   0.0000       0.353188         9.6107 
  92   0.0000       0.366757         9.9800 
  93   0.0000       0.366785         9.9807 
  94   0.0000       0.372108        10.1256 
  95   0.0000       0.379121        10.3164 
  96   0.0000       0.379130        10.3166 
  97   0.0000       0.382759        10.4154 
  98   0.0000       0.386183        10.5086 
  99   0.0000       0.399592        10.8734 
 100   0.0000       0.406300        11.0560 
 101   0.0000       0.406331        11.0568 
 102   0.0000       0.411893        11.2082 
 103   0.0000       0.434613        11.8264 
 104   0.0000       0.440661        11.9910 
 105   0.0000       0.445219        12.1150 
 106   0.0000       0.458957        12.4888 
 107   0.0000       0.462424        12.5832 
 108   0.0000       0.462507        12.5855 
 109   0.0000       0.464281        12.6337 
 110   0.0000       0.466123        12.6838 
 111   0.0000       0.466139        12.6843 
 112   0.0000       0.467969        12.7341 
 113   0.0000       0.467979        12.7343 
 114   0.0000       0.469972        12.7886 
 115   0.0000       0.478809        13.0291 
 116   0.0000       0.480705        13.0807 
 117   0.0000       0.504685        13.7332 
 118   0.0000       0.541642        14.7388 
 119   0.0000       0.544100        14.8057 
 120   0.0000       0.544213        14.8088 
 121   0.0000       0.562839        15.3156 
 122   0.0000       0.584034        15.8924 
 123   0.0000       0.584060        15.8931 
 124   0.0000       0.589584        16.0434 
 125   0.0000       0.589642        16.0450 
 126   0.0000       0.589893        16.0518 
 127   0.0000       0.596014        16.2184 
 128   0.0000       0.620001        16.8711 
 129   0.0000       0.621095        16.9008 
 130   0.0000       0.621130        16.9018 
 131   0.0000       0.630113        17.1462 
 132   0.0000       0.648757        17.6536 
 133   0.0000       0.649954        17.6862 
 134   0.0000       0.653960        17.7952 
 135   0.0000       0.653970        17.7954 
 136   0.0000       0.672823        18.3084 
 137   0.0000       0.675993        18.3947 
 138   0.0000       0.678304        18.4576 
 139   0.0000       0.678320        18.4580 
 140   0.0000       0.684999        18.6398 
 141   0.0000       0.685066        18.6416 
 142   0.0000       0.685976        18.6664 
 143   0.0000       0.690207        18.7815 
 144   0.0000       0.692667        18.8484 
 145   0.0000       0.692728        18.8501 
 146   0.0000       0.695837        18.9347 
 147   0.0000       0.706992        19.2382 
 148   0.0000       0.716950        19.5092 
 149   0.0000       0.731941        19.9171 
 150   0.0000       0.731956        19.9175 
 151   0.0000       0.741977        20.1902 
 152   0.0000       0.764261        20.7966 
 153   0.0000       0.782387        21.2898 
 154   0.0000       0.798484        21.7278 
 155   0.0000       0.798558        21.7299 
 156   0.0000       0.798570        21.7302 
 157   0.0000       0.801438        21.8082 
 158   0.0000       0.820103        22.3161 
 159   0.0000       0.821825        22.3630 
 160   0.0000       0.821842        22.3635 
 161   0.0000       0.830113        22.5885 
 162   0.0000       0.839251        22.8372 
 163   0.0000       0.839977        22.8569 
 164   0.0000       0.840014        22.8580 
 165   0.0000       0.855311        23.2742 
 166   0.0000       0.869380        23.6570 
 167   0.0000       0.869393        23.6574 
 168   0.0000       0.880873        23.9698 
 169   0.0000       0.888961        24.1898 
 170   0.0000       0.907960        24.7069 
 171   0.0000       0.907969        24.7071 
 172   0.0000       0.910471        24.7752 
 173   0.0000       0.934247        25.4222 
 174   0.0000       0.941679        25.6244 
 175   0.0000       0.957025        26.0420 
 176   0.0000       0.969556        26.3830 
 177   0.0000       0.988915        26.9098 
 178   0.0000       0.988940        26.9104 
 179   0.0000       0.993145        27.0249 
 180   0.0000       0.993682        27.0395 
 181   0.0000       0.999248        27.1909 
 182   0.0000       1.001144        27.2425 
 183   0.0000       1.001164        27.2431 
 184   0.0000       1.004633        27.3374 
 185   0.0000       1.020475        27.7685 
 186   0.0000       1.022912        27.8349 
 187   0.0000       1.022944        27.8357 
 188   0.0000       1.024865        27.8880 
 189   0.0000       1.033807        28.1313 
 190   0.0000       1.033818        28.1316 
 191   0.0000       1.037088        28.2206 
 192   0.0000       1.050510        28.5858 
 193   0.0000       1.061901        28.8958 
 194   0.0000       1.065504        28.9938 
 195   0.0000       1.065615        28.9969 
 196   0.0000       1.073673        29.2161 
 197   0.0000       1.073685        29.2164 
 198   0.0000       1.092175        29.7196 
 199   0.0000       1.097292        29.8588 
 200   0.0000       1.111912        30.2567 
 201   0.0000       1.111953        30.2578 
 202   0.0000       1.125092        30.6153 
 203   0.0000       1.146903        31.2088 
 204   0.0000       1.147948        31.2373 
 205   0.0000       1.148065        31.2404 
 206   0.0000       1.222410        33.2635 
 207   0.0000       1.227731        33.4083 
 208   0.0000       1.264225        34.4013 
 209   0.0000       1.270273        34.5659 
 210   0.0000       1.271816        34.6079 
 211   0.0000       1.271895        34.6100 
 212   0.0000       1.325721        36.0747 
 213   0.0000       1.325749        36.0755 
 214   0.0000       1.332396        36.2564 
 215   0.0000       1.339754        36.4566 
 216   0.0000       1.370712        37.2990 
 217   0.0000       1.386628        37.7321 
 218   0.0000       1.398591        38.0576 
 219   0.0000       1.398708        38.0608 
 220   0.0000       1.423124        38.7252 
 221   0.0000       1.423148        38.7258 
 222   0.0000       1.444754        39.3137 
 223   0.0000       1.445650        39.3381 
 224   0.0000       1.546078        42.0709 
 225   0.0000       1.546126        42.0722 
 226   0.0000       1.582449        43.0606 
 227   0.0000       1.588391        43.2223 
 228   0.0000       1.712932        46.6113 
 229   0.0000       1.736543        47.2537 
 230   0.0000       1.736569        47.2544 
 231   0.0000       1.744147        47.4607 
 232   0.0000       1.784425        48.5567 
 233   0.0000       1.786536        48.6141 
 234   0.0000       1.786557        48.6147 
 235   0.0000       1.821306        49.5603 
 236   0.0000       1.845189        50.2102 
 237   0.0000       1.850186        50.3461 
 238   0.0000       1.859451        50.5982 
 239   0.0000       1.859497        50.5995 
 240   0.0000       1.867138        50.8074 
 241   0.0000       1.888125        51.3785 
 242   0.0000       1.892987        51.5108 
 243   0.0000       1.893000        51.5111 
 244   0.0000       1.899811        51.6965 
 245   0.0000       1.899872        51.6982 
 246   0.0000       1.900448        51.7138 
 247   0.0000       1.907701        51.9112 
 248   0.0000       1.913879        52.0793 
 249   0.0000       1.930542        52.5327 
 250   0.0000       1.930638        52.5353 
 251   0.0000       1.933628        52.6167 
 252   0.0000       1.953375        53.1540 
 253   0.0000       1.953482        53.1569 
 254   0.0000       1.960313        53.3428 
 255   0.0000       1.961599        53.3778 
 256   0.0000       1.987313        54.0775 
 257   0.0000       2.009853        54.6909 
 258   0.0000       2.014323        54.8125 
 259   0.0000       2.014431        54.8155 
 260   0.0000       2.023884        55.0727 
 261   0.0000       2.049028        55.7569 
 262   0.0000       2.049064        55.7579 
 263   0.0000       2.070415        56.3389 
 264   0.0000       2.096205        57.0406 
 265   0.0000       2.134903        58.0937 
 266   0.0000       2.151585        58.5476 
 267   0.0000       2.218818        60.3771 
 268   0.0000       2.242958        61.0340 
 269   0.0000       2.243134        61.0388 
 270   0.0000       2.267620        61.7051 
 271   0.0000       2.278721        62.0072 
 272   0.0000       2.278801        62.0093 
 273   0.0000       2.317941        63.0744 
 274   0.0000       2.334131        63.5149 
 275   0.0000       2.334163        63.5158 
 276   0.0000       2.360454        64.2312 
 277   0.0000       2.392985        65.1164 
 278   0.0000       2.402482        65.3749 
 279   0.0000       2.402499        65.3753 
 280   0.0000       2.421491        65.8921 
 281   0.0000       2.527721        68.7828 
 282   0.0000       2.528353        68.8000 
 283   0.0000       2.561620        69.7052 
 284   0.0000       2.563016        69.7432 
 285   0.0000       2.563100        69.7455 
 286   0.0000       2.588465        70.4357 
 287   0.0000       2.625674        71.4482 
 288   0.0000       2.625717        71.4494 
 289   0.0000       2.643096        71.9223 
 290   0.0000       2.672421        72.7203 
 291   0.0000       2.802692        76.2651 
 292   0.0000       2.808450        76.4218 
 293   0.0000       2.808454        76.4219 
 294   0.0000       2.811499        76.5048 
 295   0.0000       2.825794        76.8938 
 296   0.0000       2.825802        76.8940 
 297   0.0000       2.834459        77.1295 
 298   0.0000       2.888712        78.6059 
 299   0.0000       2.907566        79.1189 
 300   0.0000       2.907604        79.1199 
 301   0.0000       2.969165        80.7951 
 302   0.0000       2.969199        80.7960 
 303   0.0000       2.972308        80.8806 
 304   0.0000       2.980257        81.0969 
 305   0.0000       2.981660        81.1351 
 306   0.0000       2.981707        81.1364 
 307   0.0000       2.981880        81.1411 
 308   0.0000       2.988744        81.3279 
 309   0.0000       2.996793        81.5469 
 310   0.0000       3.013144        81.9918 
 311   0.0000       3.022336        82.2419 
 312   0.0000       3.022381        82.2432 
 313   0.0000       3.077818        83.7517 
 314   0.0000       3.080081        83.8133 
 315   0.0000       3.083827        83.9152 
 316   0.0000       3.099662        84.3461 
 317   0.0000       3.099675        84.3464 
 318   0.0000       3.115212        84.7692 
 319   0.0000       3.115226        84.7696 
 320   0.0000       3.120539        84.9142 
 321   0.0000       3.147343        85.6435 
 322   0.0000       3.147413        85.6455 
 323   0.0000       3.150871        85.7395 
 324   0.0000       3.177537        86.4652 
 325   0.0000       3.226283        87.7916 
 326   0.0000       3.244615        88.2905 
 327   0.0000       3.244652        88.2915 
 328   0.0000       3.244952        88.2996 
 329   0.0000       3.250966        88.4633 
 330   0.0000       3.279952        89.2520 
 331   0.0000       3.280035        89.2543 
 332   0.0000       3.283313        89.3435 
 333   0.0000       3.300383        89.8080 
 334   0.0000       3.341769        90.9342 
 335   0.0000       3.390290        92.2545 
 336   0.0000       3.402223        92.5792 
 337   0.0000       3.402356        92.5828 
 338   0.0000       3.437487        93.5388 
 339   0.0000       3.437570        93.5410 
 340   0.0000       3.454449        94.0003 
 341   0.0000       3.457392        94.0804 
 342   0.0000       3.459622        94.1411 
 343   0.0000       3.491327        95.0039 
 344   0.0000       3.491391        95.0056 
 345   0.0000       3.496050        95.1324 
 346   0.0000       3.514792        95.6423 
 347   0.0000       3.514803        95.6427 
 348   0.0000       3.538637        96.2912 
 349   0.0000       3.554911        96.7341 
 350   0.0000       3.559054        96.8468 
 351   0.0000       3.641302        99.0849 
 352   0.0000       3.641387        99.0872 
 353   0.0000       3.688375       100.3658 
 354   0.0000       3.710740       100.9744 
 355   0.0000       3.713579       101.0516 
 356   0.0000       3.786732       103.0422 
 357   0.0000       3.815510       103.8253 
 358   0.0000       3.815534       103.8260 
 359   0.0000       3.850693       104.7827 
 360   0.0000       3.865029       105.1728 
 361   0.0000       3.865171       105.1766 
 362   0.0000       3.882236       105.6410 
 363   0.0000       3.882371       105.6447 
 364   0.0000       3.882673       105.6529 
 365   0.0000       3.942193       107.2725 
 366   0.0000       3.942234       107.2736 
 367   0.0000       3.952962       107.5656 
 368   0.0000       4.041560       109.9764 
 369   0.0000       4.377954       119.1302 
 370   0.0000       4.493627       122.2778 
 371   0.0000       4.534395       123.3871 
 372   0.0000       4.537674       123.4764 
 373   0.0000       4.537737       123.4781 
 374   0.0000       4.579367       124.6109 
 375   0.0000       4.741202       129.0147 
 376   0.0000       4.741278       129.0167 
 377   0.0000       4.766531       129.7039 
 378   0.0000       4.804509       130.7373 
 379   0.0000       4.865493       132.3968 
 380   0.0000       5.227755       142.2545 
 381   0.0000       5.227804       142.2558 
 382   0.0000       5.227837       142.2567 
 383   0.0000       5.228151       142.2652 
 384   0.0000       5.228151       142.2652 
 385   0.0000       5.228882       142.2851 
 386   0.0000       5.228889       142.2853 
 387   0.0000       5.229767       142.3092 
 388   0.0000       5.254275       142.9761 
 389   0.0000       5.254287       142.9764 
 390   0.0000       5.647688       153.6814 
 391   0.0000       5.651841       153.7944 
 392   0.0000       5.652538       153.8134 
 393   0.0000       5.652539       153.8134 
 394   0.0000       5.653896       153.8503 
 395   0.0000       5.653899       153.8504 
 396   0.0000       5.658942       153.9876 
 397   0.0000       5.677978       154.5056 
 398   0.0000       5.685023       154.6973 
 399   0.0000       5.697950       155.0491 
 400   0.0000       6.358182       173.0149 
 401   0.0000       6.381727       173.6556 
 402   0.0000       6.381732       173.6558 
 403   0.0000       6.400984       174.1796 
 404   0.0000       6.414244       174.5405 
 405   0.0000       6.414260       174.5409 
 406   0.0000       6.435183       175.1102 
 407   0.0000       6.462766       175.8608 
 408   0.0000       6.467170       175.9806 
 409   0.0000       6.467206       175.9816 
 410   0.0000       6.530226       177.6965 
 411   0.0000       6.530262       177.6975 
 412   0.0000       6.537199       177.8862 
 413   0.0000       6.558962       178.4784 
 414   0.0000       6.559006       178.4796 
 415   0.0000       6.559031       178.4803 
 416   0.0000       6.564696       178.6345 
 417   0.0000       6.577329       178.9782 
 418   0.0000       6.577606       178.9858 
 419   0.0000       6.598904       179.5653 
 420   0.0000       6.774133       184.3335 
 421   0.0000       6.784153       184.6062 
 422   0.0000       6.790305       184.7736 
 423   0.0000       6.790312       184.7738 
 424   0.0000       6.813737       185.4112 
 425   0.0000       6.955402       189.2661 
 426   0.0000       6.964219       189.5060 
 427   0.0000       6.964281       189.5077 
 428   0.0000       6.973007       189.7452 
 429   0.0000       6.979005       189.9084 
 430   0.0000       6.979021       189.9088 
 431   0.0000       6.982654       190.0077 
 432   0.0000       6.984144       190.0482 
 433   0.0000       7.001747       190.5272 
 434   0.0000       7.001779       190.5281 
 435   0.0000       7.121090       193.7747 
 436   0.0000       7.132303       194.0798 
 437   0.0000       7.132661       194.0896 
 438   0.0000       7.154831       194.6928 
 439   0.0000       7.155016       194.6979 
 440   0.0000       7.169576       195.0941 
 441   0.0000       7.288766       198.3374 
 442   0.0000       7.326930       199.3759 
 443   0.0000       7.326951       199.3765 
 444   0.0000       7.335376       199.6057 
 445   0.0000       7.342882       199.8100 
 446   0.0000       7.361064       200.3047 
 447   0.0000       8.724356       237.4018 
 448   0.0000       8.794375       239.3071 
 449   0.0000       8.794625       239.3139 
 450   0.0000       8.810504       239.7460 
 451   0.0000       8.999862       244.8987 
 452   0.0000      23.045982       627.1130 
 453   0.0000      23.085830       628.1974 
 454   0.0000      23.085924       628.1999 
 455   0.0000      23.086389       628.2126 
 456   0.0000      23.165400       630.3626 
 457   0.0000      25.148921       684.3369 
 458   0.0000      44.220268      1203.2947 
 459   0.0000      44.286315      1205.0919 
 460   0.0000      44.286367      1205.0933 
 461   0.0000      44.365214      1207.2388 
 462   0.0000      44.381191      1207.6736 
 463   0.0000      57.715295      1570.5130 
 464   0.0000      84.604561      2302.2071 

                    ********************************
                    * MULLIKEN POPULATION ANALYSIS *
                    ********************************

-----------------------
MULLIKEN ATOMIC CHARGES
-----------------------
   0 Mo:    0.288924
   1 C :    0.195284
   2 C :    0.195141
   3 C :    0.195261
   4 C :    0.195392
   5 O :   -0.260034
   6 O :   -0.260084
   7 O :   -0.260147
   8 O :   -0.259982
   9 C :    0.055930
  10 O :   -0.297513
  11 F :   -0.788171
Sum of atomic charges:   -1.0000000

--------------------------------
MULLIKEN REDUCED ORBITAL CHARGES
--------------------------------
  0 Mos       :     2.566828  s :     2.566828
      pz      :     2.106444  p :     6.635752
      px      :     2.264777
      py      :     2.264531
      dz2     :     0.478931  d :     4.478220
      dxz     :     1.242736
      dyz     :     1.235801
      dx2y2   :     0.324444
      dxy     :     1.196308
      f0      :     0.009037  f :     0.030277
      f+1     :     0.006501
      f-1     :     0.006509
      f+2     :     0.000547
      f-2     :     0.000030
      f+3     :     0.003839
      f-3     :     0.003815
  1 C s       :     3.567902  s :     3.567902
      pz      :     0.634627  p :     2.111559
      px      :     0.615724
      py      :     0.861208
      dz2     :     0.004301  d :     0.108461
      dxz     :     0.007080
      dyz     :     0.042426
      dx2y2   :     0.004288
      dxy     :     0.050366
      f0      :     0.002225  f :     0.016794
      f+1     :     0.000396
      f-1     :     0.001999
      f+2     :     0.003572
      f-2     :     0.000119
      f+3     :     0.005420
      f-3     :     0.003064
  2 C s       :     3.568120  s :     3.568120
      pz      :     0.635243  p :     2.111355
      px      :     0.860291
      py      :     0.615821
      dz2     :     0.002647  d :     0.108590
      dxz     :     0.044652
      dyz     :     0.007054
      dx2y2   :     0.003795
      dxy     :     0.050442
      f0      :     0.002252  f :     0.016793
      f+1     :     0.001950
      f-1     :     0.000399
      f+2     :     0.003590
      f-2     :     0.000097
      f+3     :     0.003067
      f-3     :     0.005437
  3 C s       :     3.567918  s :     3.567918
      pz      :     0.634566  p :     2.111481
      px      :     0.861109
      py      :     0.615806
      dz2     :     0.003513  d :     0.108546
      dxz     :     0.043512
      dyz     :     0.007016
      dx2y2   :     0.004046
      dxy     :     0.050460
      f0      :     0.002252  f :     0.016793
      f+1     :     0.001950
      f-1     :     0.000402
      f+2     :     0.003588
      f-2     :     0.000092
      f+3     :     0.003071
      f-3     :     0.005440
  4 C s       :     3.567964  s :     3.567964
      pz      :     0.636177  p :     2.111362
      px      :     0.615740
      py      :     0.859444
      dz2     :     0.002350  d :     0.108491
      dxz     :     0.007204
      dyz     :     0.044915
      dx2y2   :     0.003737
      dxy     :     0.050285
      f0      :     0.002224  f :     0.016792
      f+1     :     0.000390
      f-1     :     0.002001
      f+2     :     0.003577
      f-2     :     0.000132
      f+3     :     0.005412
      f-3     :     0.003057
  5 O s       :     3.893414  s :     3.893414
      pz      :     1.514229  p :     4.311555
      px      :     1.504019
      py      :     1.293307
      dz2     :     0.002507  d :     0.053390
      dxz     :    -0.000157
      dyz     :     0.022078
      dx2y2   :     0.008773
      dxy     :     0.020189
      f0      :     0.000261  f :     0.001676
      f+1     :     0.000045
      f-1     :     0.000116
      f+2     :     0.000430
      f-2     :     0.000006
      f+3     :     0.000653
      f-3     :     0.000166
  6 O s       :     3.893519  s :     3.893519
      pz      :     1.514974  p :     4.311540
      px      :     1.292510
      py      :     1.504056
      dz2     :     0.002387  d :     0.053349
      dxz     :     0.022217
      dyz     :    -0.000199
      dx2y2   :     0.008718
      dxy     :     0.020225
      f0      :     0.000267  f :     0.001676
      f+1     :     0.000106
      f-1     :     0.000046
      f+2     :     0.000434
      f-2     :     0.000002
      f+3     :     0.000166
      f-3     :     0.000655
  7 O s       :     3.893555  s :     3.893555
      pz      :     1.515232  p :     4.311583
      px      :     1.504066
      py      :     1.292286
      dz2     :     0.002487  d :     0.053333
      dxz     :    -0.000148
      dyz     :     0.022168
      dx2y2   :     0.008656
      dxy     :     0.020169
      f0      :     0.000263  f :     0.001676
      f+1     :     0.000045
      f-1     :     0.000113
      f+2     :     0.000431
      f-2     :     0.000005
      f+3     :     0.000653
      f-3     :     0.000166
  8 O s       :     3.893503  s :     3.893503
      pz      :     1.515399  p :     4.311483
      px      :     1.292010
      py      :     1.504073
      dz2     :     0.002376  d :     0.053320
      dxz     :     0.022256
      dyz     :    -0.000194
      dx2y2   :     0.008662
      dxy     :     0.020219
      f0      :     0.000267  f :     0.001676
      f+1     :     0.000105
      f-1     :     0.000046
      f+2     :     0.000435
      f-2     :     0.000001
      f+3     :     0.000166
      f-3     :     0.000656
  9 C s       :     3.572920  s :     3.572920
      pz      :     0.885687  p :     2.236243
      px      :     0.675052
      py      :     0.675504
      dz2     :     0.007724  d :     0.118538
      dxz     :     0.051666
      dyz     :     0.051329
      dx2y2   :     0.001655
      dxy     :     0.006164
      f0      :     0.004890  f :     0.016369
      f+1     :     0.005625
      f-1     :     0.005614
      f+2     :     0.000104
      f-2     :     0.000127
      f+3     :     0.000004
      f-3     :     0.000004
 10 O s       :     3.892157  s :     3.892157
      pz      :     1.292200  p :     4.349903
      px      :     1.529108
      py      :     1.528595
      dz2     :     0.011296  d :     0.053773
      dxz     :     0.021344
      dyz     :     0.021285
      dx2y2   :    -0.000053
      dxy     :    -0.000099
      f0      :     0.000288  f :     0.001680
      f+1     :     0.000693
      f-1     :     0.000687
      f+2     :     0.000006
      f-2     :     0.000006
      f+3     :     0.000000
      f-3     :     0.000000
 11 F s       :     4.029689  s :     4.029689
      pz      :     1.822968  p :     5.756568
      px      :     1.966921
      py      :     1.966679
      dz2     :     0.001396  d :     0.001769
      dxz     :    -0.000707
      dyz     :    -0.000681
      dx2y2   :     0.001528
      dxy     :     0.000233
      f0      :     0.000068  f :     0.000146
      f+1     :     0.000035
      f-1     :     0.000035
      f+2     :     0.000003
      f-2     :     0.000005
      f+3     :     0.000000
      f-3     :     0.000000


                     *******************************
                     * LOEWDIN POPULATION ANALYSIS *
                     *******************************

----------------------
LOEWDIN ATOMIC CHARGES
----------------------
   0 Mo:    0.735833
   1 C :   -0.239079
   2 C :   -0.239065
   3 C :   -0.239077
   4 C :   -0.239047
   5 O :    0.054018
   6 O :    0.053969
   7 O :    0.053912
   8 O :    0.053962
   9 C :   -0.337959
  10 O :    0.006764
  11 F :   -0.664230

-------------------------------
LOEWDIN REDUCED ORBITAL CHARGES
-------------------------------
  0 Mos       :     1.885414  s :     1.885414
      pz      :     2.116943  p :     6.486514
      px      :     2.184860
      py      :     2.184711
      dz2     :     0.745146  d :     4.833177
      dxz     :     1.119092
      dyz     :     1.115971
      dx2y2   :     0.756479
      dxy     :     1.096489
      f0      :     0.017372  f :     0.059061
      f+1     :     0.011931
      f-1     :     0.011944
      f+2     :     0.000896
      f-2     :     0.000046
      f+3     :     0.008464
      f-3     :     0.008409
  1 C s       :     3.016890  s :     3.016890
      pz      :     0.628588  p :     2.358128
      px      :     0.611244
      py      :     1.118296
      dz2     :     0.087802  d :     0.774071
      dxz     :     0.014683
      dyz     :     0.231156
      dx2y2   :     0.198158
      dxy     :     0.242272
      f0      :     0.011600  f :     0.089990
      f+1     :     0.001914
      f-1     :     0.010846
      f+2     :     0.019313
      f-2     :     0.000380
      f+3     :     0.028738
      f-3     :     0.017200
  2 C s       :     3.016908  s :     3.016908
      pz      :     0.629122  p :     2.358079
      px      :     1.117668
      py      :     0.611289
      dz2     :     0.084523  d :     0.774097
      dxz     :     0.233392
      dyz     :     0.013997
      dx2y2   :     0.199158
      dxy     :     0.243026
      f0      :     0.011691  f :     0.089981
      f+1     :     0.010682
      f-1     :     0.001941
      f+2     :     0.019321
      f-2     :     0.000249
      f+3     :     0.017262
      f-3     :     0.028836
  3 C s       :     3.016897  s :     3.016897
      pz      :     0.628140  p :     2.358105
      px      :     1.118688
      py      :     0.611277
      dz2     :     0.086147  d :     0.774092
      dxz     :     0.232152
      dyz     :     0.014215
      dx2y2   :     0.198722
      dxy     :     0.242856
      f0      :     0.011718  f :     0.089983
      f+1     :     0.010627
      f-1     :     0.001948
      f+2     :     0.019355
      f-2     :     0.000230
      f+3     :     0.017255
      f-3     :     0.028848
  4 C s       :     3.016920  s :     3.016920
      pz      :     0.630819  p :     2.358059
      px      :     0.611232
      py      :     1.116007
      dz2     :     0.084143  d :     0.774095
      dxz     :     0.014318
      dyz     :     0.233827
      dx2y2   :     0.199124
      dxy     :     0.242683
      f0      :     0.011537  f :     0.089974
      f+1     :     0.001896
      f-1     :     0.010966
      f+2     :     0.019232
      f-2     :     0.000422
      f+3     :     0.028706
      f-3     :     0.017216
  5 O s       :     3.401603  s :     3.401603
      pz      :     1.359246  p :     4.334404
      px      :     1.350529
      py      :     1.624629
      dz2     :     0.029111  d :     0.202907
      dxz     :     0.000171
      dyz     :     0.046499
      dx2y2   :     0.086113
      dxy     :     0.041013
      f0      :     0.000651  f :     0.007068
      f+1     :     0.000096
      f-1     :     0.001423
      f+2     :     0.001091
      f-2     :     0.000012
      f+3     :     0.001437
      f-3     :     0.002359
  6 O s       :     3.401626  s :     3.401626
      pz      :     1.358800  p :     4.334435
      px      :     1.625062
      py      :     1.350573
      dz2     :     0.029019  d :     0.202904
      dxz     :     0.046407
      dyz     :     0.000079
      dx2y2   :     0.086282
      dxy     :     0.041117
      f0      :     0.000647  f :     0.007067
      f+1     :     0.001429
      f-1     :     0.000098
      f+2     :     0.001075
      f-2     :     0.000003
      f+3     :     0.002371
      f-3     :     0.001444
  7 O s       :     3.401656  s :     3.401656
      pz      :     1.359689  p :     4.334471
      px      :     1.350581
      py      :     1.624201
      dz2     :     0.028530  d :     0.202896
      dxz     :     0.000143
      dyz     :     0.047429
      dx2y2   :     0.085758
      dxy     :     0.041036
      f0      :     0.000650  f :     0.007065
      f+1     :     0.000096
      f-1     :     0.001423
      f+2     :     0.001086
      f-2     :     0.000011
      f+3     :     0.001438
      f-3     :     0.002361
  8 O s       :     3.401633  s :     3.401633
      pz      :     1.358978  p :     4.334441
      px      :     1.624886
      py      :     1.350577
      dz2     :     0.028760  d :     0.202898
      dxz     :     0.046823
      dyz     :     0.000063
      dx2y2   :     0.086118
      dxy     :     0.041133
      f0      :     0.000647  f :     0.007066
      f+1     :     0.001429
      f-1     :     0.000098
      f+2     :     0.001073
      f-2     :     0.000003
      f+3     :     0.002373
      f-3     :     0.001444
  9 C s       :     3.001536  s :     3.001536
      pz      :     1.103224  p :     2.408545
      px      :     0.652167
      py      :     0.653154
      dz2     :     0.261083  d :     0.838338
      dxz     :     0.270782
      dyz     :     0.270728
      dx2y2   :     0.020685
      dxy     :     0.015060
      f0      :     0.027522  f :     0.089541
      f+1     :     0.030660
      f-1     :     0.030615
      f+2     :     0.000297
      f-2     :     0.000426
      f+3     :     0.000012
      f-3     :     0.000011
 10 O s       :     3.400656  s :     3.400656
      pz      :     1.620341  p :     4.365660
      px      :     1.372391
      py      :     1.372928
      dz2     :     0.112361  d :     0.219651
      dxz     :     0.053246
      dyz     :     0.053634
      dx2y2   :     0.000202
      dxy     :     0.000207
      f0      :     0.003761  f :     0.007269
      f+1     :     0.001726
      f-1     :     0.001753
      f+2     :     0.000014
      f-2     :     0.000015
      f+3     :     0.000000
      f-3     :     0.000000
 11 F s       :     3.807861  s :     3.807861
      pz      :     1.814731  p :     5.671795
      px      :     1.928655
      py      :     1.928409
      dz2     :     0.069513  d :     0.184278
      dxz     :     0.050863
      dyz     :     0.050976
      dx2y2   :     0.006469
      dxy     :     0.006456
      f0      :     0.000113  f :     0.000296
      f+1     :     0.000085
      f-1     :     0.000086
      f+2     :     0.000002
      f-2     :     0.000009
      f+3     :     0.000000
      f-3     :     0.000000


                      *****************************
                      * MAYER POPULATION ANALYSIS *
                      *****************************

  NA   - Mulliken gross atomic population
  ZA   - Total nuclear charge
  QA   - Mulliken gross atomic charge
  VA   - Mayer's total valence
  BVA  - Mayer's bonded valence
  FA   - Mayer's free valence

  ATOM       NA         ZA         QA         VA         BVA        FA
  0 Mo    13.7111    14.0000     0.2889     5.6127     5.6127    -0.0000
  1 C      5.8047     6.0000     0.1953     2.8160     2.8160     0.0000
  2 C      5.8049     6.0000     0.1951     2.8158     2.8158     0.0000
  3 C      5.8047     6.0000     0.1953     2.8156     2.8156     0.0000
  4 C      5.8046     6.0000     0.1954     2.8159     2.8159    -0.0000
  5 O      8.2600     8.0000    -0.2600     2.1512     2.1512    -0.0000
  6 O      8.2601     8.0000    -0.2601     2.1508     2.1508    -0.0000
  7 O      8.2601     8.0000    -0.2601     2.1505     2.1505    -0.0000
  8 O      8.2600     8.0000    -0.2600     2.1503     2.1503    -0.0000
  9 C      5.9441     6.0000     0.0559     3.0891     3.0891    -0.0000
 10 O      8.2975     8.0000    -0.2975     2.1000     2.1000    -0.0000
 11 F      9.7882     9.0000    -0.7882     0.2840     0.2840    -0.0000

  Mayer bond orders larger than 0.100000
B(  0-Mo,  1-C ) :   0.8820 B(  0-Mo,  2-C ) :   0.8822 B(  0-Mo,  3-C ) :   0.8820 
B(  0-Mo,  4-C ) :   0.8823 B(  0-Mo,  5-O ) :   0.1012 B(  0-Mo,  6-O ) :   0.1013 
B(  0-Mo,  7-O ) :   0.1012 B(  0-Mo,  8-O ) :   0.1012 B(  0-Mo,  9-C ) :   1.0780 
B(  0-Mo, 10-O ) :   0.1185 B(  0-Mo, 11-F ) :   0.4829 B(  1-C ,  5-O ) :   1.9947 
B(  2-C ,  8-O ) :   1.9939 B(  3-C ,  6-O ) :   1.9942 B(  4-C ,  7-O ) :   1.9940 
B(  9-C , 10-O ) :   1.9162 

-------
TIMINGS
-------

Total SCF time: 0 days 0 hours 1 min 24 sec 

Total time                  ....      84.075 sec
Sum of individual times     ....      83.015 sec  ( 98.7%)

Fock matrix formation       ....      74.920 sec  ( 89.1%)
  Split-RI-J                ....       5.576 sec  (  7.4% of F)
  Chain of spheres X        ....      55.139 sec  ( 73.6% of F)
  XC integration            ....      13.061 sec  ( 17.4% of F)
    Basis function eval.    ....       1.825 sec  ( 14.0% of XC)
    Density eval.           ....       6.244 sec  ( 47.8% of XC)
    XC-Functional eval.     ....       0.173 sec  (  1.3% of XC)
    XC-Potential eval.      ....       3.023 sec  ( 23.1% of XC)
Diagonalization             ....       2.460 sec  (  2.9%)
Density matrix formation    ....       0.060 sec  (  0.1%)
Population analysis         ....       0.189 sec  (  0.2%)
Initial guess               ....       1.840 sec  (  2.2%)
Orbital Transformation      ....       0.000 sec  (  0.0%)
Orbital Orthonormalization  ....       0.000 sec  (  0.0%)
DIIS solution               ....       1.307 sec  (  1.6%)
Grid generation             ....       2.239 sec  (  2.7%)

Maximum memory used throughout the entire SCF-calculation: 93.7 MB

-------------------------   --------------------
FINAL SINGLE POINT ENERGY      -734.879015031149
-------------------------   --------------------



           ************************************************************
           *        Program running with 8 parallel MPI-processes     *
[...]
     24       0.042399  -0.148906  -0.063217   0.034537  -0.015591   0.332627
     25      -0.410426   0.074756  -0.148661   0.209317  -0.095549  -0.045665
     26      -0.181919  -0.116176  -0.057492   0.027097  -0.015731   0.174583
     27      -0.087067  -0.028646  -0.013065  -0.000638  -0.000230   0.006225
     28      -0.106135  -0.012403   0.030418   0.000560  -0.002299  -0.000543
     29       0.002575   0.003586  -0.003581   0.000054  -0.003744   0.001449
     30      -0.216452   0.364823   0.155551  -0.001849   0.002207  -0.027780
     31      -0.262072   0.157215  -0.360367   0.001158   0.025926   0.001980
     32      -0.008258   0.021318  -0.019147   0.000055  -0.002012   0.000695
     33       0.111269   0.717344   0.311840   0.001680  -0.002430   0.032970
     34       0.118977   0.308728  -0.721657  -0.001336  -0.032455  -0.002537
     35       0.014596   0.027445  -0.025066   0.000094   0.004868  -0.001768
                 18         19         20         21         22         23    
      0       0.002726   0.005055  -0.049704   0.054869  -0.005438   0.003166
      1      -0.007627   0.007545  -0.053313  -0.048799  -0.011443   0.006666
      2      -0.000670  -0.029426   0.010424   0.003922  -0.107934  -0.141665
      3       0.002104  -0.000128  -0.034688   0.053404  -0.001478   0.005764
      4      -0.333285  -0.327012   0.056131   0.121775   0.168813  -0.053114
      5      -0.046580   0.110062  -0.365697  -0.346272  -0.215852  -0.176646
      6      -0.339266   0.306528   0.191845  -0.054026  -0.098678   0.070868
      7      -0.009865   0.007653  -0.060970  -0.025436  -0.012254   0.010494
      8      -0.035224  -0.042501   0.374834  -0.405585  -0.033976  -0.173700
      9       0.324819  -0.329305   0.006370  -0.173787   0.133523  -0.061304
     10      -0.014306   0.011604  -0.031145  -0.053646  -0.011045   0.013592
     11       0.015154   0.063692  -0.338950   0.410113  -0.147448  -0.174234
     12       0.007820   0.010701  -0.047618   0.042712  -0.008653   0.005565
     13       0.370893   0.288812   0.161029   0.075194  -0.091134   0.075124
     14       0.066802  -0.094040   0.407314   0.366543   0.040114  -0.174541
     15      -0.003115  -0.002144   0.015382  -0.021235   0.002196  -0.002309
     16      -0.348186  -0.356716   0.073968   0.143305   0.183444  -0.056444
     17       0.018628  -0.053270   0.144500   0.135355   0.060811   0.060424
     18       0.338225  -0.359653   0.040526  -0.221213   0.150107  -0.055983
     19      -0.002512   0.004450   0.013016   0.027292   0.001618  -0.003301
     20      -0.023136  -0.018036   0.133475  -0.149054   0.028389   0.062738
     21       0.002952   0.000356   0.023555  -0.016207   0.002465  -0.001128
     22       0.394426   0.284375   0.252428   0.156778  -0.078122   0.048941
     23       0.034407   0.072167  -0.123455  -0.123084  -0.047999   0.069453
     24      -0.356670   0.318441   0.264228  -0.126234  -0.101986   0.052465
     25       0.005378  -0.003893   0.024398   0.011822   0.005992  -0.003883
     26      -0.028225   0.044054  -0.116652   0.148024  -0.018728   0.066859
     27       0.009532   0.039403  -0.220763   0.250253  -0.034327  -0.014662
     28      -0.022095   0.074309  -0.233689  -0.222143  -0.076183  -0.032445
     29      -0.003603  -0.135867  -0.031751  -0.008141  -0.079078   0.612217
     30      -0.005203  -0.016193   0.116784  -0.131487   0.020190  -0.015260
     31       0.012454  -0.029297   0.124098   0.117063   0.044685  -0.032431
     32      -0.001981  -0.138428  -0.004595   0.000159  -0.073933   0.659025
     33       0.003117   0.007125  -0.070489   0.082819  -0.027913  -0.001218
     34      -0.007852   0.012020  -0.072971  -0.071886  -0.061164  -0.002615
     35       0.005825   0.289723  -0.109585  -0.039938   0.864207  -0.003155
                 24         25         26         27         28         29    
      0      -0.002879  -0.000361  -0.006326   0.037119  -0.129206   0.059398
      1      -0.001097   0.000804  -0.036442  -0.006375  -0.059567  -0.129420
      2       0.000050   0.000430  -0.003003   0.000824   0.003847   0.003756
      3       0.484120   0.015368   0.076704  -0.503386   0.363439  -0.167137
      4       0.000347  -0.010341   0.015004   0.003085   0.014881   0.034993
      5       0.010980  -0.474685   0.154122   0.006768  -0.096559  -0.195026
      6       0.005092  -0.051359  -0.000685  -0.032315   0.021601  -0.008540
      7      -0.474481  -0.032973   0.511600   0.070971   0.167509   0.370007
      8      -0.022953   0.465221   0.013569   0.163335   0.154356  -0.086879
      9       0.013704   0.027359   0.017637  -0.019566   0.031163  -0.006522
     10       0.479305  -0.034177   0.502544   0.094484   0.178113   0.361920
     11       0.024397   0.469914   0.064130  -0.146682  -0.187072   0.074973
     12      -0.471487   0.016261   0.089443  -0.514028   0.366975  -0.175593
     13       0.007326   0.063822   0.034785   0.015267   0.004965   0.020577
     14      -0.010216  -0.463959  -0.155334  -0.043744   0.063414   0.144946
     15      -0.149788  -0.005261  -0.025467   0.164933  -0.111259   0.051626
     16       0.001694   0.019017   0.007011   0.000848   0.020192   0.042106
     17      -0.003254   0.166293  -0.039330  -0.000297   0.026944   0.053562
     18      -0.001507  -0.025565  -0.002648  -0.007184   0.042818  -0.022163
     19      -0.147998   0.012159  -0.164958  -0.029828  -0.055229  -0.110562
     20      -0.007415  -0.164529  -0.019559   0.037253   0.049462  -0.018653
     21       0.144953  -0.005851  -0.028743   0.168430  -0.111938   0.054115
     22      -0.002190  -0.041099   0.004087  -0.002017   0.021547   0.043592
     23       0.003029   0.161805   0.041508   0.012994  -0.013436  -0.032115
     24       0.001285   0.034992   0.001823  -0.004824   0.043749  -0.021861
     25       0.146042   0.011473  -0.167475  -0.024089  -0.051653  -0.112994
     26       0.007028  -0.162618  -0.006377  -0.043633  -0.036200   0.021937
     27      -0.003983  -0.005949  -0.096003   0.557623   0.637505  -0.294782
     28      -0.001471   0.012730  -0.557951  -0.096295   0.290999   0.635648
     29      -0.000951  -0.000355  -0.031702   0.008662   0.023229   0.019232
     30       0.001618   0.002216   0.031354  -0.181567  -0.195512   0.090661
     31       0.000701  -0.004513   0.181943   0.031322  -0.088989  -0.194889
     32      -0.000799  -0.001110   0.007503  -0.002191  -0.016212  -0.013891
     33       0.000082   0.000315  -0.003176   0.018321   0.034011  -0.015708
     34       0.000044  -0.000971  -0.018473  -0.003120   0.015580   0.034043
     35       0.000142   0.000403   0.000543  -0.000266  -0.001365  -0.001065
                 30         31         32         33         34         35    
      0      -0.000058   0.000110   0.002112   0.000336   0.000028  -0.000080
      1      -0.001047   0.000225  -0.000325   0.002133  -0.000085  -0.000163
      2      -0.173522  -0.004193  -0.000031  -0.000129   0.000052   0.005908
      3       0.000127   0.000202   0.000146   0.001596  -0.001374   0.001230
      4       0.019356   0.103650  -0.065433   0.527514  -0.441323   0.402436
      5       0.441108  -0.004518   0.003049  -0.025087   0.021477  -0.014996
      6      -0.057632  -0.113799   0.570217   0.060141  -0.386264  -0.386290
      7       0.001735  -0.000197  -0.000341   0.000167   0.000225   0.000123
      8       0.466422  -0.015190   0.079364   0.008245  -0.053890  -0.049206
      9       0.035067   0.108077   0.539305   0.100972   0.421488   0.395605
     10       0.001206  -0.002416  -0.010802  -0.001752  -0.008388  -0.007989
     11       0.452959  -0.008857  -0.046733  -0.008876  -0.036829  -0.029933
     12      -0.001217  -0.001482  -0.000902   0.006744   0.004264  -0.004537
     13      -0.070425  -0.116747  -0.092948   0.578845   0.362710  -0.381589
     14       0.472963  -0.018993  -0.015827   0.098217   0.061482  -0.059933
     15       0.000068  -0.000205   0.000641  -0.001046   0.000934  -0.000793
     16      -0.006774  -0.076685   0.049880  -0.399228   0.317158  -0.281383
     17      -0.140084   0.002717  -0.001709   0.013881  -0.011309   0.009610
     18      -0.015097  -0.080004  -0.407584  -0.075503  -0.302146  -0.276272
     19      -0.000028   0.001663   0.008256   0.002050   0.006100   0.005669
     20      -0.143369   0.005926   0.030079   0.005625   0.022517   0.020166
     21       0.000621   0.001045   0.001346  -0.005098  -0.003047   0.003178
     22       0.032810   0.086628   0.069648  -0.435734  -0.258312   0.265910
     23      -0.147510   0.013520   0.010926  -0.068211  -0.040525   0.041264
     24       0.025877   0.084351  -0.429677  -0.046046   0.275812   0.269381
     25      -0.000290   0.000025  -0.000046   0.000517  -0.000089   0.000008
     26      -0.146466   0.010632  -0.054257  -0.005766   0.034964   0.033714
     27       0.021395  -0.018246  -0.001787  -0.000597   0.000003   0.005434
     28       0.050549  -0.038650   0.000048  -0.002324   0.000196   0.011535
     29       0.115612   0.781310   0.003976   0.014062  -0.001692  -0.230576
     30      -0.010050   0.013074   0.000873   0.000359  -0.000018  -0.003644
     31      -0.023073   0.027723   0.000019   0.001285  -0.000084  -0.007731
     32       0.126562  -0.556617  -0.002802  -0.009892   0.001182   0.154508
     33       0.000529   0.000029  -0.007839  -0.001219  -0.000270   0.000035
     34       0.001532   0.000091   0.001196  -0.007854   0.000618   0.000083
     35       0.023733  -0.001588   0.000050   0.000126  -0.000038  -0.004992


-----------
IR SPECTRUM
-----------

 Mode   freq       eps      Int      T**2         TX        TY        TZ
       cm**-1   L/(mol*cm) km/mol    a.u.
----------------------------------------------------------------------------
  6:     32.70   0.000000    0.00  0.000001  ( 0.000411 -0.000847 -0.000237)
  7:     60.75   0.000049    0.25  0.000254  (-0.012842 -0.009413 -0.000086)
  8:     60.93   0.000049    0.25  0.000249  ( 0.009180 -0.012845 -0.000104)
  9:     67.78   0.000032    0.16  0.000147  ( 0.001395  0.003014 -0.011657)
 10:     78.45   0.000182    0.92  0.000725  ( 0.025597  0.008195  0.001760)
 11:     78.79   0.000236    1.19  0.000936  (-0.013789  0.027246  0.001891)
 12:     78.90   0.000079    0.40  0.000314  ( 0.011709  0.013202  0.001630)
 13:    121.71   0.000051    0.26  0.000131  (-0.010496 -0.004546 -0.000706)
 14:    122.85   0.000048    0.24  0.000122  (-0.004376  0.010127  0.000474)
 15:    349.98   0.000297    1.50  0.000264  ( 0.013746 -0.008684 -0.000124)
 16:    351.50   0.013809   69.78  0.012260  (-0.008674 -0.110118 -0.007650)
 17:    352.13   0.013564   68.55  0.012020  ( 0.109312 -0.007982  0.002750)
 18:    396.98   0.000016    0.08  0.000013  (-0.000940  0.002979 -0.001681)
 19:    403.90   0.005666   28.63  0.004377  (-0.000035  0.001274 -0.066150)
 20:    406.47   0.000912    4.61  0.000700  ( 0.016023  0.016889  0.012574)
 21:    406.85   0.000768    3.88  0.000589  (-0.017893  0.015561  0.005181)
 22:    417.00   0.018399   92.98  0.013769  ( 0.003239  0.006965 -0.117089)
 23:    471.19   0.000092    0.47  0.000061  ( 0.000026  0.000238 -0.007805)
 24:    487.50   0.000009    0.05  0.000006  ( 0.002240  0.000928  0.000130)
 25:    537.78   0.000000    0.00  0.000000  ( 0.000074  0.000281 -0.000294)
 26:    562.21   0.001736    8.77  0.000963  ( 0.005188  0.030449  0.003062)
 27:    562.48   0.001744    8.81  0.000968  (-0.030676  0.005110 -0.000777)
 28:    620.08   0.009805   49.55  0.004935  ( 0.063733  0.029543 -0.000315)
 29:    620.21   0.009777   49.41  0.004919  (-0.029302  0.063722 -0.000502)
 30:    632.90   0.006296   31.82  0.003104  ( 0.000162  0.000378  0.055716)
 31:   1898.14   0.248189  1254.25  0.040803  (-0.006958 -0.015218  0.201304)
 32:   1971.48   0.550709  2783.06  0.087171  ( 0.291791 -0.044702  0.005546)
 33:   1971.82   0.548577  2772.28  0.086819  ( 0.044786  0.290562  0.019660)
 34:   2007.52   0.003276   16.55  0.000509  ( 0.009031 -0.020603 -0.001776)
 35:   2102.96   0.002367   11.96  0.000351  ( 0.001784  0.003825 -0.018261)

* The epsilon (eps) is given for a Dirac delta lineshape.
** The dipole moment derivative (T) already includes vibrational overlap.

The first frequency considered to be a vibration is 6
The total number of vibrations considered is 30


--------------------------
THERMOCHEMISTRY AT 298.15K
--------------------------

Temperature         ... 298.15 K
Pressure            ... 1.00 atm
Total Mass          ... 254.99 AMU

Throughout the following assumptions are being made:
  (1) The electronic state is orbitally nondegenerate
  (2) There are no thermally accessible electronically excited states
  (3) Hindered rotations indicated by low frequency modes are not
      treated as such but are treated as vibrations and this may
      cause some error
  (4) All equations used are the standard statistical mechanics
      equations for an ideal gas
  (5) All vibrations are strictly harmonic

freq.      32.70  E(vib)   ...       0.55 
freq.      60.75  E(vib)   ...       0.51 
freq.      60.93  E(vib)   ...       0.51 
freq.      67.78  E(vib)   ...       0.50 
freq.      78.45  E(vib)   ...       0.49 
freq.      78.79  E(vib)   ...       0.49 
freq.      78.90  E(vib)   ...       0.49 
freq.     121.71  E(vib)   ...       0.44 
freq.     122.85  E(vib)   ...       0.43 
freq.     349.98  E(vib)   ...       0.23 
freq.     351.50  E(vib)   ...       0.23 
freq.     352.13  E(vib)   ...       0.23 
freq.     396.98  E(vib)   ...       0.20 
freq.     403.90  E(vib)   ...       0.19 
freq.     406.47  E(vib)   ...       0.19 
freq.     406.85  E(vib)   ...       0.19 
freq.     417.00  E(vib)   ...       0.18 
freq.     471.19  E(vib)   ...       0.15 
freq.     487.50  E(vib)   ...       0.15 
freq.     537.78  E(vib)   ...       0.12 
freq.     562.21  E(vib)   ...       0.11 
freq.     562.48  E(vib)   ...       0.11 
freq.     620.08  E(vib)   ...       0.09 
freq.     620.21  E(vib)   ...       0.09 
freq.     632.90  E(vib)   ...       0.09 
freq.    1898.14  E(vib)   ...       0.00 
freq.    1971.48  E(vib)   ...       0.00 
freq.    1971.82  E(vib)   ...       0.00 
freq.    2007.52  E(vib)   ...       0.00 
freq.    2102.96  E(vib)   ...       0.00 

------------
INNER ENERGY
------------

The inner energy is: U= E(el) + E(ZPE) + E(vib) + E(rot) + E(trans)
    E(el)   - is the total energy from the electronic structure calculation
              = E(kin-el) + E(nuc-el) + E(el-el) + E(nuc-nuc)
    E(ZPE)  - the the zero temperature vibrational energy from the frequency calculation
    E(vib)  - the the finite temperature correction to E(ZPE) due to population
              of excited vibrational states
    E(rot)  - is the rotational thermal energy
    E(trans)- is the translational thermal energy

Summary of contributions to the inner energy U:
Electronic energy                ...   -734.90609410 Eh
Zero point energy                ...      0.04153995 Eh      26.07 kcal/mol
Thermal vibrational correction   ...      0.01109169 Eh       6.96 kcal/mol
Thermal rotational correction    ...      0.00141627 Eh       0.89 kcal/mol
Thermal translational correction ...      0.00141627 Eh       0.89 kcal/mol
-----------------------------------------------------------------------
Total thermal energy                   -734.85062991 Eh


Summary of corrections to the electronic energy:
(perhaps to be used in another calculation)
Total thermal correction                  0.01392424 Eh       8.74 kcal/mol
Non-thermal (ZPE) correction              0.04153995 Eh      26.07 kcal/mol
-----------------------------------------------------------------------
Total correction                          0.05546419 Eh      34.80 kcal/mol


--------
ENTHALPY
--------

The enthalpy is H = U + kB*T
                kB is Boltzmann's constant
Total free energy                 ...   -734.85062991 Eh 
Thermal Enthalpy correction       ...      0.00094421 Eh       0.59 kcal/mol
-----------------------------------------------------------------------
Total Enthalpy                    ...   -734.84968570 Eh


Note: Only C1 symmetry has been detected, increase convergence thresholds 
      if your molecule has a higher symmetry. Symmetry factor of 1.0 is   
      used for the rotational entropy correction. 
 

Note: Rotational entropy computed according to Herzberg 
Infrared and Raman Spectra, Chapter V,1, Van Nostrand Reinhold, 1945 
Point Group:  C1, Symmetry Number:   1  
Rotational constants in cm-1:     0.023638     0.023620     0.019567 

Vibrational entropy computed according to the QRRHO of S. Grimme
Chem.Eur.J. 2012 18 9955


-------
ENTROPY
-------

The entropy contributions are T*S = T*(S(el)+S(vib)+S(rot)+S(trans))
     S(el)   - electronic entropy
     S(vib)  - vibrational entropy
     S(rot)  - rotational entropy
     S(trans)- translational entropy
The entropies will be listed as multiplied by the temperature to get
units of energy

Electronic entropy                ...      0.00000000 Eh      0.00 kcal/mol
Vibrational entropy               ...      0.02027735 Eh     12.72 kcal/mol
Rotational entropy                ...      0.01490420 Eh      9.35 kcal/mol
Translational entropy             ...      0.02019694 Eh     12.67 kcal/mol
-----------------------------------------------------------------------
Final entropy term                ...      0.05537849 Eh     34.75 kcal/mol

In case the symmetry of your molecule has not been determined correctly
or in case you have a reason to use a different symmetry number we print 
out the resulting rotational entropy values for sn=1,12 :
 --------------------------------------------------------
|  sn= 1 | S(rot)=       0.01490420 Eh      9.35 kcal/mol|
|  sn= 2 | S(rot)=       0.01424974 Eh      8.94 kcal/mol|
|  sn= 3 | S(rot)=       0.01386691 Eh      8.70 kcal/mol|
|  sn= 4 | S(rot)=       0.01359528 Eh      8.53 kcal/mol|
|  sn= 5 | S(rot)=       0.01338460 Eh      8.40 kcal/mol|
|  sn= 6 | S(rot)=       0.01321245 Eh      8.29 kcal/mol|
|  sn= 7 | S(rot)=       0.01306691 Eh      8.20 kcal/mol|
|  sn= 8 | S(rot)=       0.01294083 Eh      8.12 kcal/mol|
|  sn= 9 | S(rot)=       0.01282962 Eh      8.05 kcal/mol|
|  sn=10 | S(rot)=       0.01273014 Eh      7.99 kcal/mol|
|  sn=11 | S(rot)=       0.01264015 Eh      7.93 kcal/mol|
|  sn=12 | S(rot)=       0.01255800 Eh      7.88 kcal/mol|
 --------------------------------------------------------


-------------------
GIBBS FREE ENERGY
-------------------

The Gibbs free energy is G = H - T*S

Total enthalpy                    ...   -734.84968570 Eh 
Total entropy correction          ...     -0.05537849 Eh    -34.75 kcal/mol
-----------------------------------------------------------------------
Final Gibbs free energy         ...   -734.90506419 Eh

For completeness - the Gibbs free energy minus the electronic energy
G-E(el)                           ...      0.00102991 Eh      0.65 kcal/mol


Timings for individual modules:

Sum of individual times         ...     2795.625 sec (=  46.594 min)
GTO integral calculation        ...       31.324 sec (=   0.522 min)   1.1 %
SCF iterations                  ...     1236.249 sec (=  20.604 min)  44.2 %
SCF Gradient evaluation         ...      402.016 sec (=   6.700 min)  14.4 %
Geometry relaxation             ...        0.609 sec (=   0.010 min)   0.0 %
Analytical frequency calculation...     1125.427 sec (=  18.757 min)  40.3 %
                             ****ORCA TERMINATED NORMALLY****
TOTAL RUN TIME: 0 days 0 hours 46 minutes 38 seconds 940 msec
