
                                 *****************
                                 * O   R   C   A *
                                 *****************

                                            #,                                       
                                            ###                                      
                                            ####                                     
                                            #####                                    
                                            ######                                   
                                           ########,                                 
                                     ,,################,,,,,                         
                               ,,#################################,,                 
                          ,,##########################################,,             
                       ,#########################################, ''#####,          
                    ,#############################################,,   '####,        
                  ,##################################################,,,,####,       
                ,###########''''           ''''###############################       
              ,#####''   ,,,,##########,,,,          '''####'''          '####       
            ,##' ,,,,###########################,,,                        '##       
           ' ,,###''''                  '''############,,,                           
         ,,##''                                '''############,,,,        ,,,,,,###''
      ,#''                                            '''#######################'''  
     '                                                          ''''####''''         
             ,#######,   #######,   ,#######,      ##                                
            ,#'     '#,  ##    ##  ,#'     '#,    #''#        ######   ,####,        
            ##       ##  ##   ,#'  ##            #'  '#       #        #'  '#        
            ##       ##  #######   ##           ,######,      #####,   #    #        
            '#,     ,#'  ##    ##  '#,     ,#' ,#      #,         ##   #,  ,#        
             '#######'   ##     ##  '#######'  #'      '#     #####' # '####'        



                  #######################################################
                  #                        -***-                        #
                  #          Department of theory and spectroscopy      #
                  #    Directorship and core code : Frank Neese         #
                  #        Max Planck Institute fuer Kohlenforschung    #
                  #                Kaiser Wilhelm Platz 1               #
                  #                 D-45470 Muelheim/Ruhr               #
                  #                      Germany                        #
                  #                                                     #
                  #                  All rights reserved                #
                  #                        -***-                        #
                  #######################################################



                         Program Version 5.0.4 -  RELEASE  -

 With contributions from (in alphabetic order):
   Daniel Aravena         : Magnetic Suceptibility
   Michael Atanasov       : Ab Initio Ligand Field Theory (pilot matlab implementation)
   Alexander A. Auer      : GIAO ZORA, VPT2 properties, NMR spectrum
   Ute Becker             : Parallelization
   Giovanni Bistoni       : ED, misc. LED, open-shell LED, HFLD
   Martin Brehm           : Molecular dynamics
   Dmytro Bykov           : SCF Hessian
   Vijay G. Chilkuri      : MRCI spin determinant printing, contributions to CSF-ICE
   Dipayan Datta          : RHF DLPNO-CCSD density
   Achintya Kumar Dutta   : EOM-CC, STEOM-CC
   Dmitry Ganyushin       : Spin-Orbit,Spin-Spin,Magnetic field MRCI
   Miquel Garcia          : C-PCM and meta-GGA Hessian, CC/C-PCM, Gaussian charge scheme
   Yang Guo               : DLPNO-NEVPT2, F12-NEVPT2, CIM, IAO-localization
   Andreas Hansen         : Spin unrestricted coupled pair/coupled cluster methods
   Benjamin Helmich-Paris : MC-RPA, TRAH-SCF, COSX integrals
   Lee Huntington         : MR-EOM, pCC
   Robert Izsak           : Overlap fitted RIJCOSX, COSX-SCS-MP3, EOM
   Marcus Kettner         : VPT2
   Christian Kollmar      : KDIIS, OOCD, Brueckner-CCSD(T), CCSD density, CASPT2, CASPT2-K
   Simone Kossmann        : Meta GGA functionals, TD-DFT gradient, OOMP2, MP2 Hessian
   Martin Krupicka        : Initial AUTO-CI
   Lucas Lang             : DCDCAS
   Marvin Lechner         : AUTO-CI (C++ implementation), FIC-MRCC
   Dagmar Lenk            : GEPOL surface, SMD
   Dimitrios Liakos       : Extrapolation schemes; Compound Job, initial MDCI parallelization
   Dimitrios Manganas     : Further ROCIS development; embedding schemes
   Dimitrios Pantazis     : SARC Basis sets
   Anastasios Papadopoulos: AUTO-CI, single reference methods and gradients
   Taras Petrenko         : DFT Hessian,TD-DFT gradient, ASA, ECA, R-Raman, ABS, FL, XAS/XES, NRVS
   Peter Pinski           : DLPNO-MP2, DLPNO-MP2 Gradient
   Christoph Reimann      : Effective Core Potentials
   Marius Retegan         : Local ZFS, SOC
   Christoph Riplinger    : Optimizer, TS searches, QM/MM, DLPNO-CCSD(T), (RO)-DLPNO pert. Triples
   Tobias Risthaus        : Range-separated hybrids, TD-DFT gradient, RPA, STAB
   Michael Roemelt        : Original ROCIS implementation
   Masaaki Saitow         : Open-shell DLPNO-CCSD energy and density
   Barbara Sandhoefer     : DKH picture change effects
   Avijit Sen             : IP-ROCIS
   Kantharuban Sivalingam : CASSCF convergence, NEVPT2, FIC-MRCI
   Bernardo de Souza      : ESD, SOC TD-DFT
   Georgi Stoychev        : AutoAux, RI-MP2 NMR, DLPNO-MP2 response
   Willem Van den Heuvel  : Paramagnetic NMR
   Boris Wezisla          : Elementary symmetry handling
   Frank Wennmohs         : Technical directorship


 We gratefully acknowledge several colleagues who have allowed us to
 interface, adapt or use parts of their codes:
   Stefan Grimme, W. Hujo, H. Kruse, P. Pracht,  : VdW corrections, initial TS optimization,
                  C. Bannwarth, S. Ehlert          DFT functionals, gCP, sTDA/sTD-DF
   Ed Valeev, F. Pavosevic, A. Kumar             : LibInt (2-el integral package), F12 methods
   Garnet Chan, S. Sharma, J. Yang, R. Olivares  : DMRG
   Ulf Ekstrom                                   : XCFun DFT Library
   Mihaly Kallay                                 : mrcc  (arbitrary order and MRCC methods)
   Jiri Pittner, Ondrej Demel                    : Mk-CCSD
   Frank Weinhold                                : gennbo (NPA and NBO analysis)
   Christopher J. Cramer and Donald G. Truhlar   : smd solvation model
   Lars Goerigk                                  : TD-DFT with DH, B97 family of functionals
   V. Asgeirsson, H. Jonsson                     : NEB implementation
   FAccTs GmbH                                   : IRC, NEB, NEB-TS, DLPNO-Multilevel, CI-OPT
                                                   MM, QMMM, 2- and 3-layer-ONIOM, Crystal-QMMM,
                                                   LR-CPCM, SF, NACMEs, symmetry and pop. for TD-DFT,
                                                   nearIR, NL-DFT gradient (VV10), updates on ESD,
                                                   ML-optimized integration grids
   S Lehtola, MJT Oliveira, MAL Marques          : LibXC Library
   Liviu Ungur et al                             : ANISO software


 Your calculation uses the libint2 library for the computation of 2-el integrals
 For citations please refer to: http://libint.valeyev.net

 Your ORCA version has been built with support for libXC version: 5.1.0
 For citations please refer to: https://tddft.org/programs/libxc/

 This ORCA versions uses:
   CBLAS   interface :  Fast vector & matrix operations
   LAPACKE interface :  Fast linear algebra routines
   Shared memory     :  Shared parallel matrices


================================================================================

cite the ECPs for Mo [Def2-ECP] as follows:
Ce-Yb(ecp-28): M. Dolg, H. Stoll, H.Preuss, J. Chem. Phys., 1989, 90, 1730-1734.
Y-Cd(ecp-28), Hf-Hg(ecp-46): D. Andrae,U. Haeussermann, M. Dolg, H. Stoll, H. Preuss, Theor. Chim. Acta, 1990, 77, 123-141.
In-Sb(ecp-28), Tl-Bi(ecp-46): B. Metz, H. Stoll, M. Dolg, J. Chem. Phys., 2000, 113, 2563-2569.
Te-Xe(ecp-28), Po-Rn(ecp-46): K. A. Peterson, D. Figgen, E. Goll, H. Stoll, M. Dolg, J. Chem. Phys., 2003, 119, 11113-11123.
Rb(ecp-28), Cs(ecp-46): T. Leininger, A. Nicklass, W. Kuechle, H. Stoll, M. Dolg, A. Bergner, Chem. Phys. Lett., 1996, 255, 274-280.
Sr(ecp-28), Ba(ecp-46): M. Kaupp, P. V. Schleyer, H. Stoll and H. Preuss, J. Chem. Phys., 1991, 94, 1360-1366.
La(ecp-46): M. Dolg, H. Stoll, A. Savin, H. Preuss, Theor. Chim. Acta, 1989, 75, 173-194.
Lu(ecp-28): X. Cao, M. Dolg, J. Chem. Phys., 2001, 115, 7348-7355.

ECP parameters for Mo [Def2-ECP] have been obtained from:
TURBOMOLE (7.0.2)

----- Orbital basis set information -----
Your calculation utilizes the basis: def2-TZVPD
   F. Weigend and R. Ahlrichs, Phys. Chem. Chem. Phys. 7, 3297 (2005).
   D. Rappoport and F. Furche, J. Chem. Phys. 133 134105 (2010).

----- AuxJ basis set information -----
Your calculation utilizes the auxiliary basis: def2/J
   F. Weigend, Phys. Chem. Chem. Phys. 8, 1057 (2006).

================================================================================
                                        WARNINGS
                       Please study these warnings very carefully!
================================================================================


WARNING: Geometry Optimization
  ===> : Switching off AutoStart
         For restart on a previous wavefunction, please use MOREAD

INFO   : the flag for use of the SHARK integral package has been found!

================================================================================
                                       INPUT FILE
================================================================================
NAME = MoCO5NO-.inp
|  1> !B3LYP def2-TZVPD OPT FREQ TightSCF PAL8
|  2> 
|  3> %scf
|  4>   MaxIter 300
|  5> end
|  6> 
|  7> * xyz -1 1 
|  8> O         -1.11634        3.48152        0.48558
|  9> O         -4.51866        0.52355       -0.57545
| 10> C         -1.17349        2.37455        0.27643
| 11> C         -3.40501        0.43512       -0.41945
| 12> Mo        -1.28303        0.26611       -0.12169
| 13> C         -1.61319       -0.11095        1.96743
| 14> O         -1.78639       -0.30902        3.06430
| 15> N         -0.95501        0.64028       -2.15648
| 16> C          0.83693        0.09688        0.18256
| 17> C         -1.39357       -1.84568       -0.50896
| 18> O          1.95003        0.00770        0.34200
| 19> O         -1.45208       -2.95363       -0.71232
| 20> O         -1.54099        0.01667       -2.98763
| 21> **                         ****END OF INPUT****
================================================================================

                       *****************************
                       * Geometry Optimization Run *
                       *****************************

Geometry optimization settings:
Update method            Update   .... BFGS
Choice of coordinates    CoordSys .... Z-matrix Internals
Initial Hessian          InHess   .... Almoef's Model

Convergence Tolerances:
Energy Change            TolE     ....  5.0000e-06 Eh
Max. Gradient            TolMAXG  ....  3.0000e-04 Eh/bohr
RMS Gradient             TolRMSG  ....  1.0000e-04 Eh/bohr
Max. Displacement        TolMAXD  ....  4.0000e-03 bohr
RMS Displacement         TolRMSD  ....  2.0000e-03 bohr
Strict Convergence                ....  False
------------------------------------------------------------------------------
                        ORCA OPTIMIZATION COORDINATE SETUP
------------------------------------------------------------------------------

The optimization will be done in new redundant internal coordinates
Making redundant internal coordinates   ...  (new redundants) done
Evaluating the initial hessian          ...  (Almloef) done
Evaluating the coordinates              ...  done
Calculating the B-matrix                .... done
Calculating the G-matrix                .... done
Diagonalizing the G-matrix              .... done
The first mode is                       ....    6
The number of degrees of freedom        ....   33

    -----------------------------------------------------------------
                    Redundant Internal Coordinates


    -----------------------------------------------------------------
         Definition                    Initial Value    Approx d2E/dq
    -----------------------------------------------------------------
      1. B(C   2,O   0)                  1.1280         1.465122   
      2. B(C   3,O   1)                  1.1280         1.465170   
      3. B(Mo  4,C   2)                  2.1485         0.389707   
      4. B(Mo  4,C   3)                  2.1494         0.388374   
      5. B(C   5,Mo  4)                  2.1484         0.389845   
      6. B(O   6,C   5)                  1.1280         1.465214   
      7. B(N   7,Mo  4)                  2.0947         0.425225   
      8. B(C   8,Mo  4)                  2.1484         0.389900   
      9. B(C   9,Mo  4)                  2.1498         0.387768   
     10. B(O  10,C   8)                  1.1280         1.465186   
     11. B(O  11,C   9)                  1.1280         1.465266   
     12. B(O  12,N   7)                  1.1929         1.033788   
     13. L(O   0,C   2,Mo  4,C   3, 1) 179.9828         0.521274   
     14. L(O   0,C   2,Mo  4,C   3, 2) 180.0129         0.521274   
     15. L(O   1,C   3,Mo  4,C   5, 2) 179.9846         0.520943   
     16. L(O   1,C   3,Mo  4,C   5, 1) 179.9843         0.520943   
     17. A(C   2,Mo  4,C   8)           90.0430         0.462058   
     18. A(C   3,Mo  4,C   5)           89.8162         0.461757   
     19. A(C   2,Mo  4,C   5)           89.9932         0.462046   
     20. A(C   2,Mo  4,C   3)           89.9335         0.461727   
     21. A(C   2,Mo  4,N   7)           89.8121         0.467235   
     22. A(C   3,Mo  4,N   7)           90.3428         0.466942   
     23. A(C   8,Mo  4,C   9)           89.9354         0.461637   
     24. A(C   5,Mo  4,C   8)           90.0062         0.462088   
     25. A(N   7,Mo  4,C   8)           89.8347         0.467278   
     26. A(C   3,Mo  4,C   9)           90.0872         0.461306   
     27. A(N   7,Mo  4,C   9)           90.4887         0.466808   
     28. A(C   5,Mo  4,C   9)           89.7058         0.461625   
     29. L(Mo  4,C   5,O   6,C   9, 2) 179.9891         0.521315   
     30. L(Mo  4,C   5,O   6,C   9, 1) 179.9955         0.521315   
     31. A(Mo  4,N   7,O  12)          120.4305         0.490658   
     32. L(Mo  4,C   8,O  10,C   9, 2) 179.9824         0.521327   
     33. L(Mo  4,C   8,O  10,C   9, 1) 179.9810         0.521327   
     34. L(Mo  4,C   9,O  11,C   5, 2) 179.9617         0.520796   
     35. L(Mo  4,C   9,O  11,C   5, 1) 180.0048         0.520796   
     36. D(O  12,N   7,Mo  4,C   3)    -50.9344         0.002390   
     37. D(O  12,N   7,Mo  4,C   8)    129.0897         0.002390   
     38. D(O  12,N   7,Mo  4,C   9)     39.1557         0.002390   
     39. D(O  12,N   7,Mo  4,C   2)   -140.8668         0.002390   
    -----------------------------------------------------------------

Number of atoms                         .... 13
Number of degrees of freedom            .... 39

         *************************************************************
         *                GEOMETRY OPTIMIZATION CYCLE   1            *
         *************************************************************
---------------------------------
CARTESIAN COORDINATES (ANGSTROEM)
---------------------------------
  O     -1.116340    3.481520    0.485580
  O     -4.518660    0.523550   -0.575450
  C     -1.173490    2.374550    0.276430
  C     -3.405010    0.435120   -0.419450
  Mo    -1.283030    0.266110   -0.121690
  C     -1.613190   -0.110950    1.967430
  O     -1.786390   -0.309020    3.064300
  N     -0.955010    0.640280   -2.156480
  C      0.836930    0.096880    0.182560
  C     -1.393570   -1.845680   -0.508960
  O      1.950030    0.007700    0.342000
  O     -1.452080   -2.953630   -0.712320
  O     -1.540990    0.016670   -2.987630

----------------------------
CARTESIAN COORDINATES (A.U.)
----------------------------
  NO LB      ZA    FRAG     MASS         X           Y           Z
   0 O     8.0000    0    15.999   -2.109577    6.579119    0.917613
   1 O     8.0000    0    15.999   -8.539030    0.989366   -1.087443
   2 C     6.0000    0    12.011   -2.217575    4.487249    0.522377
   3 C     6.0000    0    12.011   -6.434536    0.822258   -0.792646
   4 Mo   14.0000*   0    95.940   -2.424575    0.502875   -0.229961
   5 C     6.0000    0    12.011   -3.048487   -0.209665    3.717904
   6 O     8.0000    0    15.999   -3.375788   -0.583963    5.790688
   7 N     7.0000    0    14.007   -1.804707    1.209954   -4.075157
   8 C     6.0000    0    12.011    1.581568    0.183077    0.344988
   9 C     6.0000    0    12.011   -2.633466   -3.487830   -0.961795
  10 O     8.0000    0    15.999    3.685023    0.014551    0.646286
  11 O     8.0000    0    15.999   -2.744034   -5.581552   -1.346090
  12 O     8.0000    0    15.999   -2.912049    0.031502   -5.645802
* core charge reduced due to ECP

--------------------------------
INTERNAL COORDINATES (ANGSTROEM)
--------------------------------
 O      0   0   0     0.000000000000     0.00000000     0.00000000
 O      1   0   0     4.631538898055     0.00000000     0.00000000
 C      1   2   0     1.128003734879    45.05368131     0.00000000
 C      2   1   3     1.127994763906    45.01912657     0.00000000
 Mo     3   1   2     2.148491978016   179.98054168   331.92095212
 C      5   3   1     2.148395271732    89.99321829   298.27419301
 O      6   5   3     1.127986596463   179.99101192   239.66583519
 N      5   3   1     2.094748350853    89.81214708   118.43341926
 C      5   3   1     2.148356873753    90.04298521   208.26797423
 C      5   3   1     2.149849796753   179.69826268   294.15169386
 O      9   5   3     1.127991930822   179.97726846   212.90133305
 O     10   5   8     1.127976911200   179.97245732   279.94158319
 O      8   5   3     1.192925946989   120.43054689   219.13320622

---------------------------
INTERNAL COORDINATES (A.U.)
---------------------------
 O      0   0   0     0.000000000000     0.00000000     0.00000000
 O      1   0   0     8.752340095928     0.00000000     0.00000000
 C      1   2   0     2.131618136961    45.05368131     0.00000000
 C      2   1   3     2.131601184280    45.01912657     0.00000000
 Mo     3   1   2     4.060061439377   179.98054168   331.92095212
 C      5   3   1     4.059878690985    89.99321829   298.27419301
 O      6   5   3     2.131585750049   179.99101192   239.66583519
 N      5   3   1     3.958500702595    89.81214708   118.43341926
 C      5   3   1     4.059806129320    90.04298521   208.26797423
 C      5   3   1     4.062627344930   179.69826268   294.15169386
 O      9   5   3     2.131595830527   179.97726846   212.90133305
 O     10   5   8     2.131567447554   179.97245732   279.94158319
 O      8   5   3     2.254303337858   120.43054689   219.13320622

---------------------
BASIS SET INFORMATION
---------------------
There are 4 groups of distinct atoms

 Group   1 Type O   : 12s7p3d1f contracted to 6s4p3d1f pattern {621111/4111/111/1}
 Group   2 Type C   : 12s6p3d1f contracted to 6s3p3d1f pattern {621111/411/111/1}
 Group   3 Type Mo  : 7s7p5d1f contracted to 6s4p3d1f pattern {211111/4111/311/1}
 Group   4 Type N   : 12s6p3d1f contracted to 6s3p3d1f pattern {621111/411/111/1}

Atom   0O    basis set group =>   1
Atom   1O    basis set group =>   1
Atom   2C    basis set group =>   2
Atom   3C    basis set group =>   2
Atom   4Mo   basis set group =>   3
Atom   5C    basis set group =>   2
Atom   6O    basis set group =>   1
Atom   7N    basis set group =>   4
Atom   8C    basis set group =>   2
Atom   9C    basis set group =>   2
Atom  10O    basis set group =>   1
Atom  11O    basis set group =>   1
Atom  12O    basis set group =>   1
---------------------------------
AUXILIARY/J BASIS SET INFORMATION
---------------------------------
There are 4 groups of distinct atoms

 Group   1 Type O   : 12s5p4d2f1g contracted to 6s4p3d1f1g pattern {711111/2111/211/2/1}
 Group   2 Type C   : 12s5p4d2f1g contracted to 6s4p3d1f1g pattern {711111/2111/211/2/1}
 Group   3 Type Mo  : 11s5p5d3f3g contracted to 8s5p5d2f3g pattern {41111111/11111/11111/21/111}
 Group   4 Type N   : 12s5p4d2f1g contracted to 6s4p3d1f1g pattern {711111/2111/211/2/1}

Atom   0O    basis set group =>   1
Atom   1O    basis set group =>   1
Atom   2C    basis set group =>   2
Atom   3C    basis set group =>   2
Atom   4Mo   basis set group =>   3
Atom   5C    basis set group =>   2
Atom   6O    basis set group =>   1
Atom   7N    basis set group =>   4
Atom   8C    basis set group =>   2
Atom   9C    basis set group =>   2
Atom  10O    basis set group =>   1
Atom  11O    basis set group =>   1
Atom  12O    basis set group =>   1
-------------------------
ECP PARAMETER INFORMATION
-------------------------

 Group 1, Type Mo ECP Def2-ECP (replacing 28 core electrons, lmax=3)

Atom   4Mo   ECP group =>   1



           ************************************************************
           *        Program running with 8 parallel MPI-processes     *
           *              working on a common directory               *
           ************************************************************
------------------------------------------------------------------------------
                           ORCA GTO INTEGRAL CALCULATION
                           -- RI-GTO INTEGRALS CHOSEN --
------------------------------------------------------------------------------
------------------------------------------------------------------------------
                   ___                                                        
                  /   \      - P O W E R E D   B Y -                         
                 /     \                                                     
                 |  |  |   _    _      __       _____    __    __             
                 |  |  |  | |  | |    /  \     |  _  \  |  |  /  |          
                  \  \/   | |  | |   /    \    | | | |  |  | /  /          
                 / \  \   | |__| |  /  /\  \   | |_| |  |  |/  /          
                |  |  |   |  __  | /  /__\  \  |    /   |      \           
                |  |  |   | |  | | |   __   |  |    \   |  |\   \          
                \     /   | |  | | |  |  |  |  | |\  \  |  | \   \       
                 \___/    |_|  |_| |__|  |__|  |_| \__\ |__|  \__/        
                                                                              
                      - O R C A' S   B I G   F R I E N D -                    
                                      &                                       
                       - I N T E G R A L  F E E D E R -                       
                                                                              
 v1 FN, 2020, v2 2021                                                         
------------------------------------------------------------------------------


Reading SHARK input file MoCO5NO-.SHARKINP.tmp ... ok
----------------------
SHARK INTEGRAL PACKAGE
----------------------

Number of atoms                             ...     13
Number of basis functions                   ...    502
Number of shells                            ...    176
Maximum angular momentum                    ...      3
Integral batch strategy                     ... SHARK/LIBINT Hybrid
RI-J (if used) integral strategy            ... SPLIT-RIJ (Revised 2003 algorithm where possible)
Printlevel                                  ...      1
Contraction scheme used                     ... SEGMENTED contraction
Coulomb Range Separation                    ... NOT USED
Exchange Range Separation                   ... NOT USED
Finite Nucleus Model                        ... NOT USED
Auxiliary Coulomb fitting basis             ... AVAILABLE
   # of basis functions in Aux-J            ...    677
   # of shells in Aux-J                     ...    203
   Maximum angular momentum in Aux-J        ...      4
Auxiliary J/K fitting basis                 ... NOT available
Auxiliary Correlation fitting basis         ... NOT available
Auxiliary 'external' fitting basis          ... NOT available
Integral threshold                          ...     2.500000e-11
Primitive cut-off                           ...     2.500000e-12
Primitive pair pre-selection threshold      ...     2.500000e-12

Calculating pre-screening integrals         ... done (  0.1 sec) Dimension = 176
Organizing shell pair data                  ... done (  0.2 sec)
Shell pair information
Total number of shell pairs                 ...     15576
Shell pairs after pre-screening             ...     13379
Total number of primitive shell pairs       ...     42469
Primitive shell pairs kept                  ...     26813
          la=0 lb=0:   2459 shell pairs
          la=1 lb=0:   3196 shell pairs
          la=1 lb=1:   1018 shell pairs
          la=2 lb=0:   2564 shell pairs
          la=2 lb=1:   1636 shell pairs
          la=2 lb=2:    698 shell pairs
          la=3 lb=0:    760 shell pairs
          la=3 lb=1:    538 shell pairs
          la=3 lb=2:    439 shell pairs
          la=3 lb=3:     71 shell pairs

Calculating one electron integrals          ... done (  0.0 sec)
Calculating ECP integrals                   ... done (  1.3 sec)
Calculating RI/J V-Matrix + Cholesky decomp.... done (  0.1 sec)
Calculating Nuclear repulsion               ... done (  0.0 sec) ENN=    768.950491045277 Eh

SHARK setup successfully completed in   2.0 seconds

Maximum memory used throughout the entire GTOINT-calculation: 25.2 MB


           ************************************************************
           *        Program running with 8 parallel MPI-processes     *
           *              working on a common directory               *
           ************************************************************
-------------------------------------------------------------------------------
                                 ORCA SCF
-------------------------------------------------------------------------------

------------
SCF SETTINGS
------------
Hamiltonian:
 Density Functional     Method          .... DFT(GTOs)
 Exchange Functional    Exchange        .... B88
   X-Alpha parameter    XAlpha          ....  0.666667
   Becke's b parameter  XBeta           ....  0.004200
 Correlation Functional Correlation     .... LYP
 LDA part of GGA corr.  LDAOpt          .... VWN-5
 Gradients option       PostSCFGGA      .... off
 Hybrid DFT is turned on
   Fraction HF Exchange ScalHFX         ....  0.200000
   Scaling of DF-GGA-X  ScalDFX         ....  0.720000
   Scaling of DF-GGA-C  ScalDFC         ....  0.810000
   Scaling of DF-LDA-C  ScalLDAC        ....  1.000000
   Perturbative correction              ....  0.000000
   Density functional embedding theory  .... OFF
   NL short-range parameter             ....  4.800000
 RI-approximation to the Coulomb term is turned on
   Number of AuxJ basis functions       .... 677
   RIJ-COSX (HFX calculated with COS-X)).... on


General Settings:
 Integral files         IntName         .... MoCO5NO-
 Hartree-Fock type      HFTyp           .... RHF
 Total Charge           Charge          ....   -1
 Multiplicity           Mult            ....    1
 Number of Electrons    NEL             ....  100
 Basis Dimension        Dim             ....  502
 Nuclear Repulsion      ENuc            ....    768.9504910453 Eh

Convergence Acceleration:
 DIIS                   CNVDIIS         .... on
   Start iteration      DIISMaxIt       ....    12
   Startup error        DIISStart       ....  0.200000
   # of expansion vecs  DIISMaxEq       ....     5
   Bias factor          DIISBfac        ....   1.050
   Max. coefficient     DIISMaxC        ....  10.000
 Trust-Rad. Augm. Hess. CNVTRAH         .... auto
   Auto Start mean grad. ratio tolernc. ....  1.125000
   Auto Start start iteration           ....    20
   Auto Start num. interpolation iter.  ....    10
   Max. Number of Micro iterations      ....    16
   Max. Number of Macro iterations      .... Maxiter - #DIIS iter
   Number of Davidson start vectors     ....     2
   Converg. threshold I  (grad. norm)   ....   1.000e-05
   Converg. threshold II (energy diff.) ....   1.000e-08
   Grad. Scal. Fac. for Micro threshold ....   0.100
   Minimum threshold for Micro iter.    ....   0.010
   NR start threshold (gradient norm)   ....   0.001
   Initial trust radius                 ....   0.400
   Minimum AH scaling param. (alpha)    ....   1.000
   Maximum AH scaling param. (alpha)    .... 1000.000
   Orbital update algorithm             .... Taylor
   White noise on init. David. guess    .... on
   Maximum white noise                  ....   0.010
   Quad. conv. algorithm                .... NR
 SOSCF                  CNVSOSCF        .... off
 Level Shifting         CNVShift        .... on
   Level shift para.    LevelShift      ....    0.2500
   Turn off err/grad.   ShiftErr        ....    0.0010
 Zerner damping         CNVZerner       .... off
 Static damping         CNVDamp         .... on
   Fraction old density DampFac         ....    0.7000
   Max. Damping (<1)    DampMax         ....    0.9800
   Min. Damping (>=0)   DampMin         ....    0.0000
   Turn off err/grad.   DampErr         ....    0.1000
 Fernandez-Rico         CNVRico         .... off

SCF Procedure:
 Maximum # iterations   MaxIter         ....   300
 SCF integral mode      SCFMode         .... Direct
   Integral package                     .... SHARK and LIBINT hybrid scheme
 Reset frequency        DirectResetFreq ....    20
 Integral Threshold     Thresh          ....  2.500e-11 Eh
 Primitive CutOff       TCut            ....  2.500e-12 Eh

Convergence Tolerance:
 Convergence Check Mode ConvCheckMode   .... Total+1el-Energy
 Convergence forced     ConvForced      .... 0
 Energy Change          TolE            ....  1.000e-08 Eh
 1-El. energy change                    ....  1.000e-05 Eh
 DIIS Error             TolErr          ....  5.000e-07


Diagonalization of the overlap matrix:
Smallest eigenvalue                        ... 9.377e-06
Time for diagonalization                   ...    0.074 sec
Threshold for overlap eigenvalues          ... 1.000e-08
Number of eigenvalues below threshold      ... 0
Time for construction of square roots      ...    0.133 sec
Total time needed                          ...    0.208 sec

Time for model grid setup =    0.151 sec

------------------------------
INITIAL GUESS: MODEL POTENTIAL
------------------------------
Loading Hartree-Fock densities                     ... done
  calling C:\orca_5_0_4\orca MoCO5NO-_atom42.inp > MoCO5NO-_atom42.out in order to generate an atomic fitting density for atom 4 (Mo with ECP) on-the-fly... 
    atom 4 (Mo), assumed electronic state with S=5: 1s2 2s2 2p6 3s2 3p6 4s2 3d10 4p6 5s2 4d4           ... done
Calculating cut-offs                               ... done
Initializing the effective Hamiltonian             ... done
Setting up the integral package (SHARK)            ... done
Starting the Coulomb interaction                   ... done (   0.2 sec)
Reading the grid                                   ... done
Mapping shells                                     ... done
Starting the XC term evaluation                    ... done (   0.2 sec)
  promolecular density results
     # of electrons  =    127.000213804
     EX              =   -201.005627219
     EC              =     -5.117198583
     EX+EC           =   -206.122825801
Transforming the Hamiltonian                       ... done (   0.1 sec)
Diagonalizing the Hamiltonian                      ... done (   0.1 sec)
Back transforming the eigenvectors                 ... done (   0.0 sec)
Now organizing SCF variables                       ... done
                      ------------------
                      INITIAL GUESS DONE (   3.5 sec)
                      ------------------
-------------------
DFT GRID GENERATION
-------------------

General Integration Accuracy     IntAcc      ... 4.388
Radial Grid Type                 RadialGrid  ... OptM3 with GC (2021)
Angular Grid (max. ang.)         AngularGrid ... 4 (Lebedev-302)
Angular grid pruning method      GridPruning ... 4 (adaptive)
Weight generation scheme         WeightScheme... Becke
Basis function cutoff            BFCut       ... 1.0000e-11
Integration weight cutoff        WCut        ... 1.0000e-14
Angular grids for H and He will be reduced by one unit
Partially contracted basis set               ... off
Rotationally invariant grid construction     ... off

Total number of grid points                  ...    87470
Total number of batches                      ...     1373
Average number of points per batch           ...       63
Average number of grid points per atom       ...     6728
Time for grid setup =    0.641 sec

--------------------
COSX GRID GENERATION
--------------------

GRIDX 1
-------
General Integration Accuracy     IntAcc      ... 3.816
Radial Grid Type                 RadialGrid  ... OptM3 with GC (2021)
Angular Grid (max. ang.)         AngularGrid ... 1 (Lebedev-50)
Angular grid pruning method      GridPruning ... 4 (adaptive)
Weight generation scheme         WeightScheme... Becke
Basis function cutoff            BFCut       ... 1.0000e-11
Integration weight cutoff        WCut        ... 1.0000e-14
Angular grids for H and He will be reduced by one unit
Partially contracted basis set               ... on
Rotationally invariant grid construction     ... off

Total number of grid points                  ...    10850
Total number of batches                      ...      176
Average number of points per batch           ...       61
Average number of grid points per atom       ...      835
UseSFitting                                  ... on

GRIDX 2
-------
General Integration Accuracy     IntAcc      ... 4.020
Radial Grid Type                 RadialGrid  ... OptM3 with GC (2021)
Angular Grid (max. ang.)         AngularGrid ... 2 (Lebedev-110)
Angular grid pruning method      GridPruning ... 4 (adaptive)
Weight generation scheme         WeightScheme... Becke
Basis function cutoff            BFCut       ... 1.0000e-11
Integration weight cutoff        WCut        ... 1.0000e-14
Angular grids for H and He will be reduced by one unit
Partially contracted basis set               ... on
Rotationally invariant grid construction     ... off

Total number of grid points                  ...    29057
Total number of batches                      ...      460
Average number of points per batch           ...       63
Average number of grid points per atom       ...     2235
UseSFitting                                  ... on

GRIDX 3
-------
General Integration Accuracy     IntAcc      ... 4.338
Radial Grid Type                 RadialGrid  ... OptM3 with GC (2021)
Angular Grid (max. ang.)         AngularGrid ... 3 (Lebedev-194)
Angular grid pruning method      GridPruning ... 4 (adaptive)
Weight generation scheme         WeightScheme... Becke
Basis function cutoff            BFCut       ... 1.0000e-11
Integration weight cutoff        WCut        ... 1.0000e-14
Angular grids for H and He will be reduced by one unit
Partially contracted basis set               ... on
Rotationally invariant grid construction     ... off

Total number of grid points                  ...    62176
Total number of batches                      ...      979
Average number of points per batch           ...       63
Average number of grid points per atom       ...     4783
UseSFitting                                  ... on

Time for X-Grid setup             =    1.664 sec

--------------
SCF ITERATIONS
--------------
ITER       Energy         Delta-E        Max-DP      RMS-DP      [F,P]     Damp
               ***  Starting incremental Fock matrix formation  ***
  0   -764.4519276060   0.000000000000 0.31399708  0.00333305  0.4342653 0.7000
  1   -764.6776488519  -0.225721245952 0.45397259  0.00403610  0.2785030 0.7000
                               ***Turning on DIIS***
  2   -764.7365199876  -0.058871135635 0.20617790  0.00207551  0.1805604 0.7000
  3   -764.7794722602  -0.042952272637 0.04266148  0.00047885  0.1267067 0.7000
  4   -764.8127963901  -0.033324129908 0.19875409  0.00131603  0.0926081 0.0000
  5   -764.8859632385  -0.073166848369 0.08851653  0.00063479  0.0128799 0.0000
  6   -764.8867060563  -0.000742817862 0.04743811  0.00033888  0.0057976 0.0000
  7   -764.8868886762  -0.000182619910 0.04147390  0.00031590  0.0015459 0.0000
  8   -764.8869131911  -0.000024514841 0.06822232  0.00049609  0.0006819 0.0000
               *** Restarting incremental Fock matrix formation ***
                                   *** Resetting DIIS ***
  9   -764.8869182934  -0.000005102293 0.00452754  0.00003325  0.0013752 0.0000
 10   -764.8869085073   0.000009786078 0.00230206  0.00002411  0.0024611 0.0000
 11   -764.8869215649  -0.000013057569 0.00527348  0.00005906  0.0009604 0.0000
 12   -764.8869245239  -0.000002959009 0.00188238  0.00001272  0.0001058 0.0000
 13   -764.8869246256  -0.000000101689 0.00059409  0.00000702  0.0000962 0.0000
 14   -764.8869247402  -0.000000114614 0.00053077  0.00000560  0.0000218 0.0000
 15   -764.8869247620  -0.000000021849 0.00034426  0.00000315  0.0000259 0.0000
 16   -764.8869247567   0.000000005363 0.00031899  0.00000368  0.0000071 0.0000
 17   -764.8869247691  -0.000000012392 0.00035726  0.00000322  0.0000138 0.0000
 18   -764.8869247759  -0.000000006863 0.00022397  0.00000205  0.0000052 0.0000
 19   -764.8869247751   0.000000000857 0.00028475  0.00000243  0.0000028 0.0000
 20   -764.8869247806  -0.000000005552 0.00015168  0.00000146  0.0000024 0.0000
                 **** Energy Check signals convergence ****

               *****************************************************
               *                     SUCCESS                       *
               *           SCF CONVERGED AFTER  21 CYCLES          *
               *****************************************************

Old exchange energy                            =    -17.753095715 Eh
New exchange energy                            =    -17.753103084 Eh
Exchange energy change after final integration =     -0.000007369 Eh
Total energy after final integration           =   -764.886932147 Eh
Final COS-X integration done in                =    10.404 sec

----------------
TOTAL SCF ENERGY
----------------

Total Energy       :         -764.88693215 Eh          -20813.63157 eV

Components:
Nuclear Repulsion  :          768.95049105 Eh           20924.20663 eV
Electronic Energy  :        -1533.83742319 Eh          -41737.83820 eV
One Electron Energy:        -2613.23034861 Eh          -71109.61293 eV
Two Electron Energy:         1079.39292542 Eh           29371.77473 eV
Max COSX asymmetry :            0.00000510 Eh               0.00014 eV

Virial components:
Potential Energy   :        -1482.63222168 Eh          -40344.47383 eV
Kinetic Energy     :          717.74528953 Eh           19530.84226 eV
Virial Ratio       :            2.06568018


DFT components:
N(Alpha)           :       49.999764717760 electrons
N(Beta)            :       49.999764717760 electrons
N(Total)           :       99.999529435521 electrons
E(X)               :      -71.065115290489 Eh       
E(C)               :       -4.143428405748 Eh       
E(XC)              :      -75.208543696237 Eh       
DFET-embed. en.    :        0.000000000000 Eh       

---------------
SCF CONVERGENCE
---------------

  Last Energy change         ...    3.2754e-09  Tolerance :   1.0000e-08
  Last MAX-Density change    ...    0.0000e+00  Tolerance :   1.0000e-07
  Last RMS-Density change    ...    0.0000e+00  Tolerance :   5.0000e-09
  Last DIIS Error            ...    1.7776e-06  Tolerance :   5.0000e-07

             **** THE GBW FILE WAS UPDATED (MoCO5NO-.gbw) ****
             **** DENSITY MoCO5NO-.scfp WAS UPDATED ****
             **** ENERGY FILE WAS UPDATED (MoCO5NO-.en.tmp) ****
             **** THE GBW FILE WAS UPDATED (MoCO5NO-.gbw) ****
             **** DENSITY MoCO5NO-.scfp WAS UPDATED ****
----------------
ORBITAL ENERGIES
----------------

  NO   OCC          E(Eh)            E(eV) 
   0   2.0000     -19.075612      -519.0738 
   1   2.0000     -19.074944      -519.0556 
   2   2.0000     -19.073082      -519.0050 
   3   2.0000     -19.072648      -518.9931 
   4   2.0000     -19.056738      -518.5602 
   5   2.0000     -18.987141      -516.6664 
   6   2.0000     -14.204090      -386.5129 
   7   2.0000     -10.147274      -276.1214 
   8   2.0000     -10.146668      -276.1049 
   9   2.0000     -10.144913      -276.0571 
  10   2.0000     -10.144118      -276.0355 
  11   2.0000     -10.130911      -275.6761 
  12   2.0000      -2.399559       -65.2953 
  13   2.0000      -1.402946       -38.1761 
  14   2.0000      -1.402649       -38.1680 
  15   2.0000      -1.394310       -37.9411 
  16   2.0000      -1.018217       -27.7071 
  17   2.0000      -1.017461       -27.6865 
  18   2.0000      -1.016269       -27.6541 
  19   2.0000      -1.015751       -27.6400 
  20   2.0000      -1.002408       -27.2769 
  21   2.0000      -0.960952       -26.1488 
  22   2.0000      -0.463353       -12.6085 
  23   2.0000      -0.443824       -12.0771 
  24   2.0000      -0.435554       -11.8520 
  25   2.0000      -0.433716       -11.8020 
  26   2.0000      -0.433191       -11.7877 
  27   2.0000      -0.422412       -11.4944 
  28   2.0000      -0.342811        -9.3284 
  29   2.0000      -0.340334        -9.2610 
  30   2.0000      -0.337970        -9.1966 
  31   2.0000      -0.337418        -9.1816 
  32   2.0000      -0.336065        -9.1448 
  33   2.0000      -0.335705        -9.1350 
  34   2.0000      -0.334966        -9.1149 
  35   2.0000      -0.332233        -9.0405 
  36   2.0000      -0.329372        -8.9627 
  37   2.0000      -0.321228        -8.7411 
  38   2.0000      -0.320894        -8.7320 
  39   2.0000      -0.307123        -8.3572 
  40   2.0000      -0.294144        -8.0041 
  41   2.0000      -0.274690        -7.4747 
  42   2.0000      -0.270908        -7.3718 
  43   2.0000      -0.258645        -7.0381 
  44   2.0000      -0.252390        -6.8679 
  45   2.0000      -0.246521        -6.7082 
  46   2.0000      -0.078126        -2.1259 
  47   2.0000      -0.064063        -1.7433 
  48   2.0000      -0.056336        -1.5330 
  49   2.0000       0.012330         0.3355 
  50   0.0000       0.083522         2.2728 
  51   0.0000       0.085579         2.3287 
  52   0.0000       0.093995         2.5577 
  53   0.0000       0.103352         2.8123 
  54   0.0000       0.110681         3.0118 
  55   0.0000       0.114403         3.1131 
  56   0.0000       0.126600         3.4450 
  57   0.0000       0.126822         3.4510 
  58   0.0000       0.131697         3.5836 
  59   0.0000       0.136982         3.7275 
  60   0.0000       0.137291         3.7359 
  61   0.0000       0.144436         3.9303 
  62   0.0000       0.146840         3.9957 
  63   0.0000       0.157188         4.2773 
  64   0.0000       0.158962         4.3256 
  65   0.0000       0.162701         4.4273 
  66   0.0000       0.164571         4.4782 
  67   0.0000       0.172207         4.6860 
  68   0.0000       0.174508         4.7486 
  69   0.0000       0.178032         4.8445 
  70   0.0000       0.178495         4.8571 
  71   0.0000       0.180426         4.9096 
  72   0.0000       0.185565         5.0495 
  73   0.0000       0.195016         5.3066 
  74   0.0000       0.195944         5.3319 
  75   0.0000       0.198752         5.4083 
  76   0.0000       0.202806         5.5186 
  77   0.0000       0.202893         5.5210 
  78   0.0000       0.226291         6.1577 
  79   0.0000       0.227305         6.1853 
  80   0.0000       0.231401         6.2967 
  81   0.0000       0.238385         6.4868 
  82   0.0000       0.244341         6.6488 
  83   0.0000       0.252197         6.8626 
  84   0.0000       0.252702         6.8764 
  85   0.0000       0.257570         7.0088 
  86   0.0000       0.265394         7.2217 
  87   0.0000       0.286257         7.7894 
  88   0.0000       0.296748         8.0749 
  89   0.0000       0.300500         8.1770 
  90   0.0000       0.301352         8.2002 
  91   0.0000       0.324076         8.8186 
  92   0.0000       0.324991         8.8435 
  93   0.0000       0.330684         8.9984 
  94   0.0000       0.343068         9.3354 
  95   0.0000       0.349485         9.5100 
  96   0.0000       0.352688         9.5971 
  97   0.0000       0.353770         9.6266 
  98   0.0000       0.361382         9.8337 
  99   0.0000       0.366460         9.9719 
 100   0.0000       0.367269         9.9939 
 101   0.0000       0.373872        10.1736 
 102   0.0000       0.377806        10.2806 
 103   0.0000       0.381309        10.3759 
 104   0.0000       0.395877        10.7724 
 105   0.0000       0.396864        10.7992 
 106   0.0000       0.398388        10.8407 
 107   0.0000       0.401789        10.9332 
 108   0.0000       0.420044        11.4300 
 109   0.0000       0.422644        11.5007 
 110   0.0000       0.426321        11.6008 
 111   0.0000       0.434419        11.8211 
 112   0.0000       0.436078        11.8663 
 113   0.0000       0.448939        12.2162 
 114   0.0000       0.455730        12.4010 
 115   0.0000       0.458433        12.4746 
 116   0.0000       0.459333        12.4991 
 117   0.0000       0.459653        12.5078 
 118   0.0000       0.460648        12.5349 
 119   0.0000       0.462757        12.5923 
 120   0.0000       0.464724        12.6458 
 121   0.0000       0.471012        12.8169 
 122   0.0000       0.477700        12.9989 
 123   0.0000       0.496919        13.5218 
 124   0.0000       0.510095        13.8804 
 125   0.0000       0.525611        14.3026 
 126   0.0000       0.532383        14.4869 
 127   0.0000       0.539329        14.6759 
 128   0.0000       0.557263        15.1639 
 129   0.0000       0.562337        15.3020 
 130   0.0000       0.566884        15.4257 
 131   0.0000       0.571327        15.5466 
 132   0.0000       0.577763        15.7217 
 133   0.0000       0.589069        16.0294 
 134   0.0000       0.601309        16.3624 
 135   0.0000       0.606631        16.5073 
 136   0.0000       0.611932        16.6515 
 137   0.0000       0.613173        16.6853 
 138   0.0000       0.620427        16.8827 
 139   0.0000       0.621733        16.9182 
 140   0.0000       0.630669        17.1614 
 141   0.0000       0.632395        17.2083 
 142   0.0000       0.632847        17.2207 
 143   0.0000       0.638358        17.3706 
 144   0.0000       0.652097        17.7445 
 145   0.0000       0.660503        17.9732 
 146   0.0000       0.666007        18.1230 
 147   0.0000       0.666333        18.1318 
 148   0.0000       0.671915        18.2837 
 149   0.0000       0.672669        18.3043 
 150   0.0000       0.677684        18.4407 
 151   0.0000       0.679096        18.4791 
 152   0.0000       0.682527        18.5725 
 153   0.0000       0.687635        18.7115 
 154   0.0000       0.688780        18.7427 
 155   0.0000       0.689632        18.7659 
 156   0.0000       0.696113        18.9422 
 157   0.0000       0.699656        19.0386 
 158   0.0000       0.703710        19.1489 
 159   0.0000       0.717855        19.5338 
 160   0.0000       0.723365        19.6838 
 161   0.0000       0.736101        20.0303 
 162   0.0000       0.754694        20.5363 
 163   0.0000       0.757817        20.6212 
 164   0.0000       0.777420        21.1547 
 165   0.0000       0.780382        21.2353 
 166   0.0000       0.782651        21.2970 
 167   0.0000       0.788582        21.4584 
 168   0.0000       0.793072        21.5806 
 169   0.0000       0.800527        21.7834 
 170   0.0000       0.805565        21.9205 
 171   0.0000       0.813264        22.1300 
 172   0.0000       0.820715        22.3328 
 173   0.0000       0.825079        22.4515 
 174   0.0000       0.830566        22.6008 
 175   0.0000       0.835801        22.7433 
 176   0.0000       0.845114        22.9967 
 177   0.0000       0.848009        23.0755 
 178   0.0000       0.861270        23.4364 
 179   0.0000       0.864737        23.5307 
 180   0.0000       0.881806        23.9952 
 181   0.0000       0.898734        24.4558 
 182   0.0000       0.902694        24.5635 
 183   0.0000       0.907525        24.6950 
 184   0.0000       0.920248        25.0412 
 185   0.0000       0.933002        25.3883 
 186   0.0000       0.941852        25.6291 
 187   0.0000       0.949202        25.8291 
 188   0.0000       0.953601        25.9488 
 189   0.0000       0.954962        25.9858 
 190   0.0000       0.959252        26.1026 
 191   0.0000       0.982425        26.7331 
 192   0.0000       0.983141        26.7526 
 193   0.0000       0.989871        26.9358 
 194   0.0000       0.992461        27.0062 
 195   0.0000       0.996079        27.1047 
 196   0.0000       0.997616        27.1465 
 197   0.0000       1.003380        27.3034 
 198   0.0000       1.007564        27.4172 
 199   0.0000       1.009033        27.4572 
 200   0.0000       1.013271        27.5725 
 201   0.0000       1.018125        27.7046 
 202   0.0000       1.030761        28.0484 
 203   0.0000       1.039255        28.2796 
 204   0.0000       1.045956        28.4619 
 205   0.0000       1.047846        28.5133 
 206   0.0000       1.048907        28.5422 
 207   0.0000       1.058709        28.8089 
 208   0.0000       1.062013        28.8988 
 209   0.0000       1.062942        28.9241 
 210   0.0000       1.074987        29.2519 
 211   0.0000       1.081923        29.4406 
 212   0.0000       1.093434        29.7538 
 213   0.0000       1.098874        29.9019 
 214   0.0000       1.106753        30.1163 
 215   0.0000       1.110308        30.2130 
 216   0.0000       1.121295        30.5120 
 217   0.0000       1.138466        30.9792 
 218   0.0000       1.153502        31.3884 
 219   0.0000       1.173115        31.9221 
 220   0.0000       1.188447        32.3393 
 221   0.0000       1.199823        32.6488 
 222   0.0000       1.204443        32.7746 
 223   0.0000       1.229018        33.4433 
 224   0.0000       1.242883        33.8206 
 225   0.0000       1.257455        34.2171 
 226   0.0000       1.260305        34.2946 
 227   0.0000       1.294889        35.2357 
 228   0.0000       1.302408        35.4403 
 229   0.0000       1.307839        35.5881 
 230   0.0000       1.314425        35.7673 
 231   0.0000       1.340679        36.4817 
 232   0.0000       1.351761        36.7833 
 233   0.0000       1.360144        37.0114 
 234   0.0000       1.394913        37.9575 
 235   0.0000       1.409605        38.3573 
 236   0.0000       1.415541        38.5188 
 237   0.0000       1.431204        38.9451 
 238   0.0000       1.439841        39.1801 
 239   0.0000       1.458848        39.6973 
 240   0.0000       1.472801        40.0769 
 241   0.0000       1.525455        41.5097 
 242   0.0000       1.537200        41.8294 
 243   0.0000       1.571912        42.7739 
 244   0.0000       1.574754        42.8512 
 245   0.0000       1.599281        43.5186 
 246   0.0000       1.606069        43.7034 
 247   0.0000       1.710993        46.5585 
 248   0.0000       1.723873        46.9090 
 249   0.0000       1.725210        46.9454 
 250   0.0000       1.752653        47.6921 
 251   0.0000       1.778696        48.4008 
 252   0.0000       1.798834        48.9488 
 253   0.0000       1.801166        49.0122 
 254   0.0000       1.811536        49.2944 
 255   0.0000       1.837771        50.0083 
 256   0.0000       1.848675        50.3050 
 257   0.0000       1.853847        50.4457 
 258   0.0000       1.863983        50.7216 
 259   0.0000       1.867863        50.8271 
 260   0.0000       1.867958        50.8297 
 261   0.0000       1.871637        50.9298 
 262   0.0000       1.887607        51.3644 
 263   0.0000       1.889759        51.4230 
 264   0.0000       1.897733        51.6399 
 265   0.0000       1.899273        51.6818 
 266   0.0000       1.907906        51.9168 
 267   0.0000       1.911324        52.0098 
 268   0.0000       1.911824        52.0234 
 269   0.0000       1.929784        52.5121 
 270   0.0000       1.943880        52.8957 
 271   0.0000       1.945748        52.9465 
 272   0.0000       1.949603        53.0514 
 273   0.0000       1.955524        53.2125 
 274   0.0000       1.962108        53.3917 
 275   0.0000       1.996643        54.3314 
 276   0.0000       2.000237        54.4292 
 277   0.0000       2.011499        54.7357 
 278   0.0000       2.019152        54.9439 
 279   0.0000       2.031410        55.2775 
 280   0.0000       2.045784        55.6686 
 281   0.0000       2.047975        55.7282 
 282   0.0000       2.054979        55.9188 
 283   0.0000       2.059563        56.0436 
 284   0.0000       2.075651        56.4813 
 285   0.0000       2.095297        57.0159 
 286   0.0000       2.102154        57.2025 
 287   0.0000       2.144127        58.3447 
 288   0.0000       2.188704        59.5577 
 289   0.0000       2.240663        60.9715 
 290   0.0000       2.244490        61.0757 
 291   0.0000       2.255883        61.3857 
 292   0.0000       2.263490        61.5927 
 293   0.0000       2.284058        62.1524 
 294   0.0000       2.294175        62.4277 
 295   0.0000       2.297789        62.5260 
 296   0.0000       2.314953        62.9931 
 297   0.0000       2.337735        63.6130 
 298   0.0000       2.364669        64.3459 
 299   0.0000       2.374266        64.6071 
 300   0.0000       2.391788        65.0839 
 301   0.0000       2.394796        65.1657 
 302   0.0000       2.411848        65.6297 
 303   0.0000       2.439678        66.3870 
 304   0.0000       2.463686        67.0403 
 305   0.0000       2.518083        68.5205 
 306   0.0000       2.552222        69.4495 
 307   0.0000       2.554444        69.5099 
 308   0.0000       2.572270        69.9950 
 309   0.0000       2.583561        70.3023 
 310   0.0000       2.610825        71.0442 
 311   0.0000       2.620727        71.3136 
 312   0.0000       2.636660        71.7472 
 313   0.0000       2.652070        72.1665 
 314   0.0000       2.798317        76.1461 
 315   0.0000       2.807849        76.4055 
 316   0.0000       2.810568        76.4795 
 317   0.0000       2.813287        76.5534 
 318   0.0000       2.827345        76.9360 
 319   0.0000       2.831786        77.0568 
 320   0.0000       2.833582        77.1057 
 321   0.0000       2.859871        77.8210 
 322   0.0000       2.906005        79.0764 
 323   0.0000       2.907553        79.1185 
 324   0.0000       2.927624        79.6647 
 325   0.0000       2.961961        80.5991 
 326   0.0000       2.964714        80.6740 
 327   0.0000       2.968417        80.7747 
 328   0.0000       2.968989        80.7903 
 329   0.0000       2.970713        80.8372 
 330   0.0000       2.976410        80.9922 
 331   0.0000       2.978349        81.0450 
 332   0.0000       2.984656        81.2166 
 333   0.0000       3.001520        81.6755 
 334   0.0000       3.014253        82.0220 
 335   0.0000       3.026643        82.3591 
 336   0.0000       3.069561        83.5270 
 337   0.0000       3.075435        83.6868 
 338   0.0000       3.082106        83.8684 
 339   0.0000       3.089208        84.0616 
 340   0.0000       3.091529        84.1248 
 341   0.0000       3.098059        84.3025 
 342   0.0000       3.106135        84.5222 
 343   0.0000       3.113079        84.7112 
 344   0.0000       3.117521        84.8321 
 345   0.0000       3.137284        85.3698 
 346   0.0000       3.139165        85.4210 
 347   0.0000       3.173689        86.3605 
 348   0.0000       3.203620        87.1749 
 349   0.0000       3.214527        87.4717 
 350   0.0000       3.230035        87.8937 
 351   0.0000       3.233221        87.9804 
 352   0.0000       3.236555        88.0711 
 353   0.0000       3.241371        88.2022 
 354   0.0000       3.269262        88.9611 
 355   0.0000       3.287914        89.4687 
 356   0.0000       3.295572        89.6771 
 357   0.0000       3.297807        89.7379 
 358   0.0000       3.299866        89.7939 
 359   0.0000       3.346211        91.0550 
 360   0.0000       3.355374        91.3044 
 361   0.0000       3.389263        92.2265 
 362   0.0000       3.391845        92.2968 
 363   0.0000       3.433082        93.4189 
 364   0.0000       3.444626        93.7330 
 365   0.0000       3.448386        93.8354 
 366   0.0000       3.451875        93.9303 
 367   0.0000       3.455963        94.0415 
 368   0.0000       3.471347        94.4602 
 369   0.0000       3.481737        94.7429 
 370   0.0000       3.486511        94.8728 
 371   0.0000       3.512705        95.5856 
 372   0.0000       3.512752        95.5868 
 373   0.0000       3.518661        95.7476 
 374   0.0000       3.538110        96.2769 
 375   0.0000       3.556199        96.7691 
 376   0.0000       3.568110        97.0932 
 377   0.0000       3.612366        98.2975 
 378   0.0000       3.655804        99.4795 
 379   0.0000       3.665583        99.7456 
 380   0.0000       3.685010       100.2742 
 381   0.0000       3.712386       101.0192 
 382   0.0000       3.723902       101.3325 
 383   0.0000       3.784522       102.9821 
 384   0.0000       3.800017       103.4037 
 385   0.0000       3.811227       103.7088 
 386   0.0000       3.846795       104.6766 
 387   0.0000       3.870657       105.3259 
 388   0.0000       3.873065       105.3914 
 389   0.0000       3.877686       105.5172 
 390   0.0000       3.925308       106.8131 
 391   0.0000       3.934977       107.0762 
 392   0.0000       3.946781       107.3974 
 393   0.0000       4.084444       111.1434 
 394   0.0000       4.088260       111.2472 
 395   0.0000       4.109129       111.8151 
 396   0.0000       4.157161       113.1221 
 397   0.0000       4.277171       116.3877 
 398   0.0000       4.379942       119.1843 
 399   0.0000       4.385755       119.3425 
 400   0.0000       4.501179       122.4833 
 401   0.0000       4.504534       122.5746 
 402   0.0000       4.519849       122.9913 
 403   0.0000       4.532003       123.3221 
 404   0.0000       4.541209       123.5726 
 405   0.0000       4.602268       125.2341 
 406   0.0000       4.724337       128.5558 
 407   0.0000       4.733184       128.7965 
 408   0.0000       4.786815       130.2559 
 409   0.0000       4.795603       130.4950 
 410   0.0000       4.920323       133.8888 
 411   0.0000       4.952247       134.7575 
 412   0.0000       4.981577       135.5556 
 413   0.0000       5.092063       138.5621 
 414   0.0000       5.221025       142.0713 
 415   0.0000       5.221266       142.0779 
 416   0.0000       5.221997       142.0978 
 417   0.0000       5.222569       142.1133 
 418   0.0000       5.222729       142.1177 
 419   0.0000       5.222991       142.1248 
 420   0.0000       5.223408       142.1361 
 421   0.0000       5.223910       142.1498 
 422   0.0000       5.236113       142.4819 
 423   0.0000       5.236206       142.4844 
 424   0.0000       5.303740       144.3221 
 425   0.0000       5.328512       144.9962 
 426   0.0000       5.336448       145.2121 
 427   0.0000       5.564579       151.4199 
 428   0.0000       5.641695       153.5183 
 429   0.0000       5.645898       153.6327 
 430   0.0000       5.646131       153.6390 
 431   0.0000       5.647749       153.6831 
 432   0.0000       5.649152       153.7212 
 433   0.0000       5.651595       153.7877 
 434   0.0000       5.651684       153.7901 
 435   0.0000       5.660785       154.0378 
 436   0.0000       5.685532       154.7112 
 437   0.0000       5.688824       154.8008 
 438   0.0000       5.741604       156.2370 
 439   0.0000       5.744423       156.3137 
 440   0.0000       6.352223       172.8528 
 441   0.0000       6.374619       173.4622 
 442   0.0000       6.376085       173.5021 
 443   0.0000       6.395952       174.0427 
 444   0.0000       6.409699       174.4168 
 445   0.0000       6.411634       174.4694 
 446   0.0000       6.425016       174.8336 
 447   0.0000       6.454598       175.6385 
 448   0.0000       6.455830       175.6721 
 449   0.0000       6.462576       175.8556 
 450   0.0000       6.527879       177.6326 
 451   0.0000       6.531860       177.7410 
 452   0.0000       6.536076       177.8557 
 453   0.0000       6.549953       178.2333 
 454   0.0000       6.552612       178.3056 
 455   0.0000       6.557302       178.4333 
 456   0.0000       6.558106       178.4551 
 457   0.0000       6.572370       178.8433 
 458   0.0000       6.577818       178.9915 
 459   0.0000       6.580668       179.0691 
 460   0.0000       6.587291       179.2493 
 461   0.0000       6.605045       179.7324 
 462   0.0000       6.630290       180.4194 
 463   0.0000       6.642324       180.7468 
 464   0.0000       6.771396       184.2590 
 465   0.0000       6.785983       184.6560 
 466   0.0000       6.787898       184.7081 
 467   0.0000       6.790442       184.7773 
 468   0.0000       6.799529       185.0246 
 469   0.0000       6.950353       189.1287 
 470   0.0000       6.959691       189.3828 
 471   0.0000       6.964628       189.5172 
 472   0.0000       6.973530       189.7594 
 473   0.0000       6.978442       189.8931 
 474   0.0000       6.980775       189.9565 
 475   0.0000       6.981428       189.9743 
 476   0.0000       6.987416       190.1372 
 477   0.0000       6.991857       190.2581 
 478   0.0000       6.993403       190.3002 
 479   0.0000       7.114015       193.5822 
 480   0.0000       7.144415       194.4094 
 481   0.0000       7.321493       199.2280 
 482   0.0000       7.323373       199.2791 
 483   0.0000       7.329434       199.4440 
 484   0.0000       7.335110       199.5985 
 485   0.0000       7.345446       199.8797 
 486   0.0000       7.379198       200.7982 
 487   0.0000       7.642471       207.9622 
 488   0.0000      23.049850       627.2183 
 489   0.0000      23.082115       628.0963 
 490   0.0000      23.089440       628.2956 
 491   0.0000      23.114419       628.9753 
 492   0.0000      23.160916       630.2406 
 493   0.0000      25.194448       685.5758 
 494   0.0000      32.497258       884.2953 
 495   0.0000      44.220527      1203.3017 
 496   0.0000      44.295835      1205.3509 
 497   0.0000      44.297627      1205.3997 
 498   0.0000      44.351494      1206.8655 
 499   0.0000      44.398500      1208.1446 
 500   0.0000      44.429796      1208.9962 
 501   0.0000      84.622180      2302.6866 

                    ********************************
                    * MULLIKEN POPULATION ANALYSIS *
                    ********************************

-----------------------
MULLIKEN ATOMIC CHARGES
-----------------------
   0 O :   -0.261455
   1 O :   -0.245266
   2 C :    0.209720
   3 C :    0.130157
   4 Mo:    0.123569
   5 C :   -0.027478
   6 O :   -0.198740
   7 N :   -0.135795
   8 C :    0.192259
   9 C :    0.135250
  10 O :   -0.258292
  11 O :   -0.241283
  12 O :   -0.422644
Sum of atomic charges:   -1.0000000

--------------------------------
MULLIKEN REDUCED ORBITAL CHARGES
--------------------------------
  0 O s       :     3.897750  s :     3.897750
      pz      :     1.508952  p :     4.309383
      px      :     1.500849
      py      :     1.299583
      dz2     :     0.003872  d :     0.052639
      dxz     :     0.000543
      dyz     :     0.020549
      dx2y2   :     0.008346
      dxy     :     0.019330
      f0      :     0.000200  f :     0.001683
      f+1     :     0.000033
      f-1     :     0.000233
      f+2     :     0.000370
      f-2     :     0.000061
      f+3     :     0.000604
      f-3     :     0.000181
  1 O s       :     3.885637  s :     3.885637
      pz      :     1.503571  p :     4.306372
      px      :     1.298714
      py      :     1.504086
      dz2     :     0.002950  d :     0.051567
      dxz     :     0.019808
      dyz     :     0.000275
      dx2y2   :     0.008547
      dxy     :     0.019987
      f0      :     0.000226  f :     0.001690
      f+1     :     0.000182
      f-1     :     0.000038
      f+2     :     0.000393
      f-2     :     0.000044
      f+3     :     0.000196
      f-3     :     0.000610
  2 C s       :     3.544107  s :     3.544107
      pz      :     0.643543  p :     2.123987
      px      :     0.617896
      py      :     0.862549
      dz2     :     0.008414  d :     0.105436
      dxz     :     0.007574
      dyz     :     0.038824
      dx2y2   :     0.006212
      dxy     :     0.044412
      f0      :     0.001842  f :     0.016750
      f+1     :     0.000283
      f-1     :     0.002664
      f+2     :     0.003364
      f-2     :     0.000603
      f+3     :     0.005020
      f-3     :     0.002974
  3 C s       :     3.632920  s :     3.632920
      pz      :     0.630233  p :     2.124041
      px      :     0.872324
      py      :     0.621484
      dz2     :     0.000984  d :     0.096094
      dxz     :     0.040136
      dyz     :     0.008816
      dx2y2   :     0.000333
      dxy     :     0.045825
      f0      :     0.002011  f :     0.016789
      f+1     :     0.002334
      f-1     :     0.000341
      f+2     :     0.003421
      f-2     :     0.000424
      f+3     :     0.003130
      f-3     :     0.005127
  4 Mos       :     2.608129  s :     2.608129
      pz      :     2.124362  p :     6.616234
      px      :     2.236768
      py      :     2.255103
      dz2     :     0.694799  d :     4.630382
      dxz     :     1.182072
      dyz     :     1.161477
      dx2y2   :     0.404456
      dxy     :     1.187578
      f0      :     0.006137  f :     0.021687
      f+1     :     0.003401
      f-1     :     0.003439
      f+2     :     0.001435
      f-2     :     0.000342
      f+3     :     0.003412
      f-3     :     0.003521
  5 C s       :     3.749029  s :     3.749029
      pz      :     0.859147  p :     2.168482
      px      :     0.651755
      py      :     0.657580
      dz2     :     0.001505  d :     0.093589
      dxz     :     0.040096
      dyz     :     0.039012
      dx2y2   :     0.004758
      dxy     :     0.008217
      f0      :     0.005037  f :     0.016377
      f+1     :     0.004875
      f-1     :     0.004850
      f+2     :     0.000794
      f-2     :     0.000779
      f+3     :     0.000021
      f-3     :     0.000022
  6 O s       :     3.819949  s :     3.819949
      pz      :     1.302707  p :     4.323930
      px      :     1.510368
      py      :     1.510855
      dz2     :     0.012874  d :     0.053180
      dxz     :     0.019225
      dyz     :     0.019290
      dx2y2   :     0.000806
      dxy     :     0.000986
      f0      :     0.000394  f :     0.001681
      f+1     :     0.000563
      f-1     :     0.000548
      f+2     :     0.000090
      f-2     :     0.000083
      f+3     :     0.000001
      f-3     :     0.000001
  7 N s       :     3.822546  s :     3.822546
      pz      :     1.187350  p :     3.277748
      px      :     1.019538
      py      :     1.070859
      dz2     :    -0.002955  d :     0.027877
      dxz     :     0.003354
      dyz     :     0.003248
      dx2y2   :     0.014667
      dxy     :     0.009562
      f0      :     0.001165  f :     0.007625
      f+1     :     0.001333
      f-1     :     0.001482
      f+2     :     0.001529
      f-2     :     0.001220
      f+3     :     0.000457
      f-3     :     0.000439
  8 C s       :     3.559020  s :     3.559020
      pz      :     0.643898  p :     2.126807
      px      :     0.863905
      py      :     0.619004
      dz2     :     0.006661  d :     0.105169
      dxz     :     0.040248
      dyz     :     0.007213
      dx2y2   :     0.007174
      dxy     :     0.043874
      f0      :     0.001995  f :     0.016745
      f+1     :     0.002357
      f-1     :     0.000332
      f+2     :     0.003396
      f-2     :     0.000454
      f+3     :     0.003109
      f-3     :     0.005102
  9 C s       :     3.637035  s :     3.637035
      pz      :     0.631369  p :     2.118758
      px      :     0.617626
      py      :     0.869764
      dz2     :     0.001981  d :     0.092152
      dxz     :     0.009048
      dyz     :     0.036931
      dx2y2   :    -0.000398
      dxy     :     0.044589
      f0      :     0.001884  f :     0.016804
      f+1     :     0.000300
      f-1     :     0.002620
      f+2     :     0.003380
      f-2     :     0.000559
      f+3     :     0.005060
      f-3     :     0.003002
 10 O s       :     3.894822  s :     3.894822
      pz      :     1.511894  p :     4.308872
      px      :     1.297475
      py      :     1.499503
      dz2     :     0.003297  d :     0.052913
      dxz     :     0.021221
      dyz     :     0.000351
      dx2y2   :     0.008496
      dxy     :     0.019548
      f0      :     0.000227  f :     0.001684
      f+1     :     0.000181
      f-1     :     0.000039
      f+2     :     0.000391
      f-2     :     0.000044
      f+3     :     0.000195
      f-3     :     0.000608
 11 O s       :     3.882597  s :     3.882597
      pz      :     1.500502  p :     4.305767
      px      :     1.504616
      py      :     1.300648
      dz2     :     0.003379  d :     0.051229
      dxz     :     0.000502
      dyz     :     0.018892
      dx2y2   :     0.008620
      dxy     :     0.019836
      f0      :     0.000200  f :     0.001691
      f+1     :     0.000033
      f-1     :     0.000233
      f+2     :     0.000373
      f-2     :     0.000061
      f+3     :     0.000607
      f-3     :     0.000183
 12 O s       :     3.959893  s :     3.959893
      pz      :     1.536261  p :     4.410179
      px      :     1.420982
      py      :     1.452935
      dz2     :     0.009634  d :     0.049251
      dxz     :     0.010430
      dyz     :     0.011059
      dx2y2   :     0.009546
      dxy     :     0.008582
      f0      :     0.000529  f :     0.003322
      f+1     :     0.000543
      f-1     :     0.000609
      f+2     :     0.000674
      f-2     :     0.000670
      f+3     :     0.000153
      f-3     :     0.000144


                     *******************************
                     * LOEWDIN POPULATION ANALYSIS *
                     *******************************

----------------------
LOEWDIN ATOMIC CHARGES
----------------------
   0 O :    0.054285
   1 O :    0.064060
   2 C :   -0.252288
   3 C :   -0.239338
   4 Mo:    0.601669
   5 C :   -0.302822
   6 O :    0.029222
   7 N :   -0.323681
   8 C :   -0.250206
   9 C :   -0.238914
  10 O :    0.054527
  11 O :    0.064906
  12 O :   -0.261419

-------------------------------
LOEWDIN REDUCED ORBITAL CHARGES
-------------------------------
  0 O s       :     3.402026  s :     3.402026
      pz      :     1.369322  p :     4.333574
      px      :     1.349739
      py      :     1.614512
      dz2     :     0.027169  d :     0.203045
      dxz     :     0.001546
      dyz     :     0.052620
      dx2y2   :     0.081156
      dxy     :     0.040553
      f0      :     0.000686  f :     0.007071
      f+1     :     0.000073
      f-1     :     0.001350
      f+2     :     0.001263
      f-2     :     0.000140
      f+3     :     0.001384
      f-3     :     0.002176
  1 O s       :     3.400449  s :     3.400449
      pz      :     1.357964  p :     4.327835
      px      :     1.617889
      py      :     1.351983
      dz2     :     0.029233  d :     0.200617
      dxz     :     0.045255
      dyz     :     0.001252
      dx2y2   :     0.082996
      dxy     :     0.041880
      f0      :     0.000652  f :     0.007039
      f+1     :     0.001368
      f-1     :     0.000089
      f+2     :     0.001136
      f-2     :     0.000104
      f+3     :     0.002225
      f-3     :     0.001463
  2 C s       :     3.016989  s :     3.016989
      pz      :     0.648876  p :     2.358868
      px      :     0.615072
      py      :     1.094921
      dz2     :     0.093333  d :     0.786586
      dxz     :     0.024191
      dyz     :     0.238736
      dx2y2   :     0.196078
      dxy     :     0.234249
      f0      :     0.009683  f :     0.089846
      f+1     :     0.001373
      f-1     :     0.014364
      f+2     :     0.018167
      f-2     :     0.002908
      f+3     :     0.026624
      f-3     :     0.016728
  3 C s       :     3.012222  s :     3.012222
      pz      :     0.628229  p :     2.350817
      px      :     1.104604
      py      :     0.617983
      dz2     :     0.097493  d :     0.786425
      dxz     :     0.232293
      dyz     :     0.023328
      dx2y2   :     0.196605
      dxy     :     0.236706
      f0      :     0.010529  f :     0.089875
      f+1     :     0.012648
      f-1     :     0.001678
      f+2     :     0.018335
      f-2     :     0.002023
      f+3     :     0.017443
      f-3     :     0.027220
  4 Mos       :     1.901104  s :     1.901104
      pz      :     2.167383  p :     6.531465
      px      :     2.182032
      py      :     2.182050
      dz2     :     0.928312  d :     4.921062
      dxz     :     1.074084
      dyz     :     1.066559
      dx2y2   :     0.771911
      dxy     :     1.080197
      f0      :     0.011986  f :     0.044700
      f+1     :     0.006954
      f-1     :     0.006936
      f+2     :     0.003008
      f-2     :     0.000564
      f+3     :     0.007497
      f-3     :     0.007756
  5 C s       :     3.013466  s :     3.013466
      pz      :     1.082379  p :     2.377051
      px      :     0.644095
      py      :     0.650577
      dz2     :     0.272654  d :     0.822805
      dxz     :     0.243521
      dyz     :     0.245317
      dx2y2   :     0.032955
      dxy     :     0.028357
      f0      :     0.028239  f :     0.089500
      f+1     :     0.026539
      f-1     :     0.026512
      f+2     :     0.003995
      f-2     :     0.004014
      f+3     :     0.000099
      f-3     :     0.000101
  6 O s       :     3.405501  s :     3.405501
      pz      :     1.609672  p :     4.348899
      px      :     1.367565
      py      :     1.371663
      dz2     :     0.103499  d :     0.209256
      dxz     :     0.049119
      dyz     :     0.051317
      dx2y2   :     0.002388
      dxy     :     0.002934
      f0      :     0.003187  f :     0.007121
      f+1     :     0.001694
      f-1     :     0.001791
      f+2     :     0.000202
      f-2     :     0.000237
      f+3     :     0.000004
      f-3     :     0.000004
  7 N s       :     3.249964  s :     3.249964
      pz      :     1.215118  p :     3.307951
      px      :     1.016407
      py      :     1.076426
      dz2     :     0.241209  d :     0.723164
      dxz     :     0.163939
      dyz     :     0.169042
      dx2y2   :     0.052130
      dxy     :     0.096844
      f0      :     0.007221  f :     0.042603
      f+1     :     0.007531
      f-1     :     0.008337
      f+2     :     0.006195
      f-2     :     0.007924
      f+3     :     0.002840
      f-3     :     0.002555
  8 C s       :     3.015450  s :     3.015450
      pz      :     0.642429  p :     2.359811
      px      :     1.100083
      py      :     0.617300
      dz2     :     0.088790  d :     0.785064
      dxz     :     0.240249
      dyz     :     0.021223
      dx2y2   :     0.198384
      dxy     :     0.236418
      f0      :     0.010504  f :     0.089880
      f+1     :     0.012791
      f-1     :     0.001643
      f+2     :     0.018322
      f-2     :     0.002132
      f+3     :     0.017439
      f-3     :     0.027050
  9 C s       :     3.011578  s :     3.011578
      pz      :     0.633108  p :     2.348856
      px      :     0.615776
      py      :     1.099971
      dz2     :     0.104882  d :     0.788548
      dxz     :     0.024678
      dyz     :     0.231427
      dx2y2   :     0.193714
      dxy     :     0.233847
      f0      :     0.009866  f :     0.089932
      f+1     :     0.001438
      f-1     :     0.014050
      f+2     :     0.018254
      f-2     :     0.002746
      f+3     :     0.026805
      f-3     :     0.016772
 10 O s       :     3.401906  s :     3.401906
      pz      :     1.365400  p :     4.333196
      px      :     1.617181
      py      :     1.350616
      dz2     :     0.027746  d :     0.203290
      dxz     :     0.050308
      dyz     :     0.001113
      dx2y2   :     0.082327
      dxy     :     0.041796
      f0      :     0.000670  f :     0.007081
      f+1     :     0.001377
      f-1     :     0.000089
      f+2     :     0.001163
      f-2     :     0.000104
      f+3     :     0.002226
      f-3     :     0.001453
 11 O s       :     3.399882  s :     3.399882
      pz      :     1.362290  p :     4.327803
      px      :     1.350551
      py      :     1.614961
      dz2     :     0.028918  d :     0.200382
      dxz     :     0.001654
      dyz     :     0.047670
      dx2y2   :     0.081535
      dxy     :     0.040605
      f0      :     0.000669  f :     0.007028
      f+1     :     0.000073
      f-1     :     0.001341
      f+2     :     0.001235
      f-2     :     0.000138
      f+3     :     0.001392
      f-3     :     0.002179
[...]
     24       0.037510  -0.034962  -0.444175   0.251611  -0.034618  -0.375046
     25       0.437760  -0.164671   0.046612  -0.035334  -0.079619  -0.006840
     26       0.073980  -0.022871   0.029561   0.001085   0.532596  -0.013699
     27       0.442275   0.038559   0.191180   0.037341   0.078468  -0.008983
     28      -0.034336   0.373590  -0.012997   0.435963  -0.035606   0.245734
     29       0.052338  -0.078810   0.028602   0.068591   0.022580   0.190511
     30      -0.012897  -0.016303  -0.452303   0.266964  -0.021432  -0.397507
     31      -0.208939   0.072025   0.029002  -0.013585   0.033642   0.044987
     32      -0.037573   0.010921  -0.020513  -0.000035  -0.216134   0.006931
     33      -0.213238   0.015063  -0.082448   0.024476  -0.039294   0.028003
     34       0.021325   0.342701   0.011558   0.456629  -0.023296   0.290500
     35      -0.024339   0.120992  -0.011084   0.084400  -0.016243  -0.006446
     36      -0.013531  -0.012533   0.002366   0.000154  -0.001892  -0.008029
     37       0.004883  -0.066472   0.001461   0.002233   0.000015  -0.000378
     38      -0.003615   0.056550   0.001213  -0.000729   0.002526   0.078600
                 24         25         26         27         28         29    
      0       0.007035  -0.015665  -0.162570   0.041628  -0.022483   0.005772
      1      -0.003002   0.020814   0.013692  -0.004973  -0.054612   0.002888
      2      -0.086898   0.165891  -0.018148   0.008097   0.154863  -0.033629
      3       0.111003  -0.047164   0.010183   0.013309   0.029040   0.009037
      4      -0.040819   0.012320   0.147576   0.015033   0.005900   0.145170
      5       0.064139   0.052120  -0.012281   0.131403  -0.182330  -0.006241
      6      -0.022903   0.053563   0.511155  -0.099012   0.060779  -0.022423
      7      -0.076632   0.151646  -0.038875   0.009674   0.092900  -0.034442
      8       0.209736  -0.404297   0.058318  -0.022650  -0.459367   0.134342
      9       0.141488   0.004005  -0.055959   0.118198  -0.128670  -0.047545
     10       0.061125  -0.017616  -0.472329  -0.068887  -0.011812  -0.429641
     11      -0.073248  -0.151402   0.023840  -0.353805   0.502462   0.014592
     12       0.016298   0.007332   0.006999  -0.050163   0.002996  -0.000066
     13       0.042211  -0.001438  -0.001450   0.004500   0.008522   0.006542
     14      -0.108534  -0.062899   0.001195  -0.005961  -0.019863   0.002163
     15      -0.065403  -0.046618  -0.175503   0.676699  -0.020163   0.046112
     16      -0.119803  -0.092108   0.015048  -0.070351  -0.157612   0.582183
     17       0.448853   0.368121  -0.020770   0.073701   0.010130   0.141398
     18      -0.054744  -0.052874   0.055787  -0.216578  -0.001056  -0.018311
     19      -0.046770  -0.100823  -0.004420   0.021960   0.037317  -0.193306
     20       0.487127   0.391323   0.004928  -0.022377   0.055428  -0.019963
     21      -0.042418   0.069852   0.019674   0.006158   0.006866   0.034374
     22      -0.240753   0.341635  -0.000954   0.001508   0.040278   0.168452
     23       0.158796  -0.331340   0.000976  -0.000958  -0.031940  -0.158531
     24      -0.111023   0.024442   0.034138   0.047969   0.012246  -0.028172
     25       0.081209  -0.015577   0.474559   0.067104  -0.022474  -0.428625
     26      -0.075882  -0.174394  -0.027880   0.381135   0.507770   0.025795
     27       0.055878  -0.042120  -0.395117  -0.347680   0.043235   0.026604
     28       0.079252  -0.108473   0.033750   0.027795   0.041262   0.038855
     29      -0.458086   0.310692  -0.042555  -0.030437  -0.320464  -0.296622
     30      -0.128196   0.033745  -0.012784   0.037343   0.012490   0.017023
     31      -0.020390   0.004199  -0.147453  -0.023585   0.006591   0.143797
     32       0.027847   0.070996   0.011717  -0.128646  -0.180765  -0.008089
     33      -0.019419   0.009593   0.119940   0.118417  -0.016388  -0.008444
     34      -0.006421  -0.058360  -0.009277  -0.009825  -0.019861  -0.019918
     35       0.174174  -0.133791   0.013089   0.010546   0.119529   0.089727
     36       0.025196  -0.027704  -0.008725   0.003875  -0.001129  -0.015689
     37       0.056172  -0.106967   0.000286  -0.000892  -0.018358  -0.061389
     38      -0.193144   0.159225  -0.000536   0.001565  -0.000224   0.089377
                 30         31         32         33         34         35    
      0       0.195241  -0.004571   0.019901  -0.001158  -0.005554  -0.000333
      1      -0.014759  -0.061377   0.029436  -0.019137  -0.110362   0.003951
      2       0.020950   0.030259  -0.158506  -0.003030  -0.027009   0.000884
      3      -0.055779   0.004628   0.038302   0.037176   0.089649   0.411491
      4       0.004117   0.150540   0.034399  -0.004400  -0.008250  -0.037986
      5      -0.031625   0.042783  -0.110296   0.012098   0.019831   0.093266
      6      -0.617382   0.004579  -0.064208   0.002427   0.007447   0.000306
      7       0.047743  -0.021004  -0.124353   0.028531   0.150355  -0.005291
      8      -0.066288  -0.159822   0.492182  -0.002080   0.037873  -0.001261
      9      -0.075582  -0.014451  -0.087189  -0.046160  -0.123753  -0.552708
     10       0.008459  -0.488575  -0.114847   0.009339   0.011961   0.050766
     11       0.046391  -0.137672   0.357731  -0.026929  -0.028346  -0.122804
     12       0.152792   0.011705   0.020173  -0.001606  -0.000394   0.000016
     13      -0.015384   0.155498   0.041664  -0.004432  -0.000551  -0.000030
     14       0.016053   0.043583  -0.149467   0.010878   0.003066   0.000017
     15      -0.265345  -0.038107  -0.016554   0.000244   0.095786   0.007249
     16       0.030371  -0.522548  -0.073296   0.007527   0.149747  -0.000072
     17      -0.027679  -0.123352   0.082925   0.006044  -0.746490  -0.001224
     18       0.078355   0.013948  -0.011264   0.001493  -0.069067  -0.002872
     19      -0.009048   0.162937  -0.001262  -0.000467  -0.108791  -0.000114
     20       0.008503   0.020199   0.105389  -0.014676   0.537627   0.001164
     21      -0.034562  -0.028272   0.003518   0.006119  -0.000561   0.003419
     22       0.003742  -0.157346   0.023521   0.554315  -0.011548  -0.000708
     23      -0.003450   0.123436  -0.013415   0.488801  -0.005796  -0.000112
     24      -0.061252  -0.040388  -0.013511   0.051028   0.129817  -0.563602
     25       0.027655  -0.484377  -0.120775   0.000796  -0.009465   0.043925
     26      -0.053554  -0.141648   0.364225  -0.016175  -0.000484  -0.001400
     27      -0.630676  -0.023674  -0.065762  -0.002367  -0.007228   0.000733
     28       0.054301  -0.065125  -0.075835  -0.032759  -0.105902  -0.003640
     29      -0.071661   0.053794   0.543258  -0.001081  -0.015273  -0.000405
     30      -0.060869   0.008348  -0.007460  -0.038397  -0.093894   0.420249
     31      -0.002055   0.149692   0.038073   0.002054   0.007279  -0.032512
     32       0.016091   0.043832  -0.114804   0.003694  -0.000296  -0.000741
     33       0.199745   0.002719   0.021373   0.002139   0.005168  -0.000507
     34      -0.015940  -0.047827   0.028463   0.029170   0.076631   0.002745
     35       0.022776  -0.024393  -0.172680   0.002321   0.011504   0.000339
     36      -0.003783   0.013603   0.000698  -0.000859  -0.000076   0.000715
     37       0.000141   0.038710  -0.017342  -0.476027   0.009241   0.000386
     38      -0.000217  -0.100201  -0.022652  -0.463386   0.010124   0.000496
                 36         37         38    
      0      -0.023272   0.008643  -0.014021
      1      -0.458318   0.170084  -0.275399
      2      -0.110374   0.040789  -0.065827
      3      -0.049892   0.302070   0.230234
      4       0.005193  -0.027731  -0.021354
      5      -0.011099   0.068595   0.052806
      6       0.030558  -0.012177   0.020000
      7       0.613372  -0.242654   0.395146
      8       0.153440  -0.059454   0.095309
      9       0.070164  -0.425415  -0.331334
     10      -0.007313   0.038953   0.030851
     11       0.015502  -0.096807  -0.076701
     12       0.000121  -0.000106   0.000114
     13       0.001459   0.000133   0.000229
     14      -0.000091   0.001194  -0.000532
     15      -0.004856  -0.004175  -0.032678
     16      -0.012132  -0.007954  -0.051775
     17       0.034604   0.030832   0.254435
     18       0.003436   0.002961   0.022854
     19       0.007334   0.005096   0.036324
     20      -0.025431  -0.022494  -0.177614
     21      -0.000367  -0.000117   0.000834
     22       0.000756  -0.016540  -0.045462
     23       0.006253  -0.016816  -0.053110
     24      -0.081683   0.438269   0.340399
     25       0.005448  -0.034113  -0.025955
     26      -0.000280  -0.001199  -0.002192
     27       0.032025   0.030808  -0.029605
     28       0.470002   0.455809  -0.441203
     29       0.068206   0.067146  -0.066488
     30       0.058455  -0.311320  -0.236489
     31      -0.003929   0.024210   0.018183
     32       0.000102   0.000689   0.001023
     33      -0.023823  -0.022096   0.020745
     34      -0.355194  -0.329588   0.309463
     35      -0.054662  -0.050427   0.047393
     36      -0.000000  -0.000024   0.000200
     37      -0.007314   0.013928   0.040982
     38      -0.007267   0.015062   0.038484


-----------
IR SPECTRUM
-----------

 Mode   freq       eps      Int      T**2         TX        TY        TZ
       cm**-1   L/(mol*cm) km/mol    a.u.
----------------------------------------------------------------------------
  6:     38.86   0.000000    0.00  0.000002  ( 0.000766 -0.000830 -0.001052)
  7:     48.50   0.000014    0.07  0.000091  (-0.009474  0.000952 -0.000067)
  8:     58.01   0.000015    0.07  0.000078  (-0.000677 -0.008597 -0.001962)
  9:     64.66   0.000007    0.03  0.000031  ( 0.005588 -0.000402  0.000141)
 10:     70.20   0.000017    0.09  0.000076  ( 0.000154  0.003008  0.008201)
 11:     76.87   0.000041    0.21  0.000166  (-0.012130  0.004316 -0.000116)
 12:     77.04   0.000105    0.53  0.000426  (-0.003658 -0.019409 -0.005969)
 13:     79.22   0.000162    0.82  0.000636  ( 0.024910 -0.003338  0.002188)
 14:     87.80   0.000143    0.72  0.000508  (-0.002370 -0.022337 -0.001757)
 15:    162.26   0.000127    0.64  0.000245  ( 0.015447 -0.001422  0.002033)
 16:    216.36   0.001603    8.10  0.002312  ( 0.005699  0.006869 -0.047245)
 17:    348.50   0.004104   20.74  0.003674  ( 0.000835  0.046417  0.038978)
 18:    356.86   0.000002    0.01  0.000002  ( 0.000820  0.000768  0.000820)
 19:    390.39   0.008012   40.49  0.006405  ( 0.005588  0.079739  0.003900)
 20:    396.14   0.006830   34.52  0.005380  (-0.072613  0.006919 -0.007729)
 21:    405.09   0.000141    0.71  0.000109  (-0.002548  0.008409  0.005606)
 22:    405.99   0.001105    5.58  0.000849  (-0.028768  0.002717 -0.003796)
 23:    413.59   0.000222    1.12  0.000167  ( 0.002364  0.011752  0.004853)
 24:    430.19   0.004655   23.52  0.003377  (-0.007792 -0.021677  0.053348)
 25:    444.73   0.000321    1.62  0.000225  ( 0.001470  0.014210 -0.004586)
 26:    494.24   0.000045    0.23  0.000028  (-0.005254  0.000806 -0.000358)
 27:    502.22   0.001300    6.57  0.000808  ( 0.028141 -0.002015  0.003426)
 28:    516.94   0.002133   10.78  0.001288  (-0.004183 -0.003356  0.035484)
 29:    542.33   0.000255    1.29  0.000147  ( 0.000553 -0.006669 -0.010094)
 30:    597.73   0.013921   70.35  0.007268  (-0.084373  0.008783 -0.008488)
 31:    611.57   0.015895   80.33  0.008111  (-0.007995 -0.088404 -0.015219)
 32:    619.60   0.024646  124.55  0.012413  (-0.013983 -0.025433  0.107568)
 33:   1523.40   0.180819  913.79  0.037040  (-0.018835  0.009702  0.191288)
 34:   1932.37   0.255129  1289.32  0.041201  ( 0.026068  0.048365 -0.195404)
 35:   1963.59   0.520624  2631.02  0.082740  (-0.285038  0.021371 -0.032203)
 36:   1971.08   0.504470  2549.38  0.079868  ( 0.012516  0.275227  0.062944)
 37:   1990.68   0.015651   79.09  0.002454  ( 0.004485  0.049247  0.002850)
 38:   2081.46   0.020316  102.67  0.003046  (-0.007074 -0.017040  0.052014)

* The epsilon (eps) is given for a Dirac delta lineshape.
** The dipole moment derivative (T) already includes vibrational overlap.

The first frequency considered to be a vibration is 6
The total number of vibrations considered is 33


--------------------------
THERMOCHEMISTRY AT 298.15K
--------------------------

Temperature         ... 298.15 K
Pressure            ... 1.00 atm
Total Mass          ... 266.00 AMU

Throughout the following assumptions are being made:
  (1) The electronic state is orbitally nondegenerate
  (2) There are no thermally accessible electronically excited states
  (3) Hindered rotations indicated by low frequency modes are not
      treated as such but are treated as vibrations and this may
      cause some error
  (4) All equations used are the standard statistical mechanics
      equations for an ideal gas
  (5) All vibrations are strictly harmonic

freq.      38.86  E(vib)   ...       0.54 
freq.      48.50  E(vib)   ...       0.53 
freq.      58.01  E(vib)   ...       0.51 
freq.      64.66  E(vib)   ...       0.50 
freq.      70.20  E(vib)   ...       0.50 
freq.      76.87  E(vib)   ...       0.49 
freq.      77.04  E(vib)   ...       0.49 
freq.      79.22  E(vib)   ...       0.49 
freq.      87.80  E(vib)   ...       0.48 
freq.     162.26  E(vib)   ...       0.39 
freq.     216.36  E(vib)   ...       0.34 
freq.     348.50  E(vib)   ...       0.23 
freq.     356.86  E(vib)   ...       0.22 
freq.     390.39  E(vib)   ...       0.20 
freq.     396.14  E(vib)   ...       0.20 
freq.     405.09  E(vib)   ...       0.19 
freq.     405.99  E(vib)   ...       0.19 
freq.     413.59  E(vib)   ...       0.19 
freq.     430.19  E(vib)   ...       0.18 
freq.     444.73  E(vib)   ...       0.17 
freq.     494.24  E(vib)   ...       0.14 
freq.     502.22  E(vib)   ...       0.14 
freq.     516.94  E(vib)   ...       0.13 
freq.     542.33  E(vib)   ...       0.12 
freq.     597.73  E(vib)   ...       0.10 
freq.     611.57  E(vib)   ...       0.10 
freq.     619.60  E(vib)   ...       0.09 
freq.    1523.40  E(vib)   ...       0.00 
freq.    1932.37  E(vib)   ...       0.00 
freq.    1963.59  E(vib)   ...       0.00 
freq.    1971.08  E(vib)   ...       0.00 
freq.    1990.68  E(vib)   ...       0.00 
freq.    2081.46  E(vib)   ...       0.00 

------------
INNER ENERGY
------------

The inner energy is: U= E(el) + E(ZPE) + E(vib) + E(rot) + E(trans)
    E(el)   - is the total energy from the electronic structure calculation
              = E(kin-el) + E(nuc-el) + E(el-el) + E(nuc-nuc)
    E(ZPE)  - the the zero temperature vibrational energy from the frequency calculation
    E(vib)  - the the finite temperature correction to E(ZPE) due to population
              of excited vibrational states
    E(rot)  - is the rotational thermal energy
    E(trans)- is the translational thermal energy

Summary of contributions to the inner energy U:
Electronic energy                ...   -764.91147329 Eh
Zero point energy                ...      0.04537761 Eh      28.47 kcal/mol
Thermal vibrational correction   ...      0.01249545 Eh       7.84 kcal/mol
Thermal rotational correction    ...      0.00141627 Eh       0.89 kcal/mol
Thermal translational correction ...      0.00141627 Eh       0.89 kcal/mol
-----------------------------------------------------------------------
Total thermal energy                   -764.85076769 Eh


Summary of corrections to the electronic energy:
(perhaps to be used in another calculation)
Total thermal correction                  0.01532799 Eh       9.62 kcal/mol
Non-thermal (ZPE) correction              0.04537761 Eh      28.47 kcal/mol
-----------------------------------------------------------------------
Total correction                          0.06070560 Eh      38.09 kcal/mol


--------
ENTHALPY
--------

The enthalpy is H = U + kB*T
                kB is Boltzmann's constant
Total free energy                 ...   -764.85076769 Eh 
Thermal Enthalpy correction       ...      0.00094421 Eh       0.59 kcal/mol
-----------------------------------------------------------------------
Total Enthalpy                    ...   -764.84982348 Eh


Note: Only C1 symmetry has been detected, increase convergence thresholds 
      if your molecule has a higher symmetry. Symmetry factor of 1.0 is   
      used for the rotational entropy correction. 
 

Note: Rotational entropy computed according to Herzberg 
Infrared and Raman Spectra, Chapter V,1, Van Nostrand Reinhold, 1945 
Point Group:  C1, Symmetry Number:   1  
Rotational constants in cm-1:     0.020617     0.019417     0.018668 

Vibrational entropy computed according to the QRRHO of S. Grimme
Chem.Eur.J. 2012 18 9955


-------
ENTROPY
-------

The entropy contributions are T*S = T*(S(el)+S(vib)+S(rot)+S(trans))
     S(el)   - electronic entropy
     S(vib)  - vibrational entropy
     S(rot)  - rotational entropy
     S(trans)- translational entropy
The entropies will be listed as multiplied by the temperature to get
units of energy

Electronic entropy                ...      0.00000000 Eh      0.00 kcal/mol
Vibrational entropy               ...      0.02288080 Eh     14.36 kcal/mol
Rotational entropy                ...      0.01508345 Eh      9.46 kcal/mol
Translational entropy             ...      0.02025680 Eh     12.71 kcal/mol
-----------------------------------------------------------------------
Final entropy term                ...      0.05822105 Eh     36.53 kcal/mol

In case the symmetry of your molecule has not been determined correctly
or in case you have a reason to use a different symmetry number we print 
out the resulting rotational entropy values for sn=1,12 :
 --------------------------------------------------------
|  sn= 1 | S(rot)=       0.01508345 Eh      9.46 kcal/mol|
|  sn= 2 | S(rot)=       0.01442899 Eh      9.05 kcal/mol|
|  sn= 3 | S(rot)=       0.01404616 Eh      8.81 kcal/mol|
|  sn= 4 | S(rot)=       0.01377454 Eh      8.64 kcal/mol|
|  sn= 5 | S(rot)=       0.01356385 Eh      8.51 kcal/mol|
|  sn= 6 | S(rot)=       0.01339171 Eh      8.40 kcal/mol|
|  sn= 7 | S(rot)=       0.01324616 Eh      8.31 kcal/mol|
|  sn= 8 | S(rot)=       0.01312008 Eh      8.23 kcal/mol|
|  sn= 9 | S(rot)=       0.01300887 Eh      8.16 kcal/mol|
|  sn=10 | S(rot)=       0.01290939 Eh      8.10 kcal/mol|
|  sn=11 | S(rot)=       0.01281940 Eh      8.04 kcal/mol|
|  sn=12 | S(rot)=       0.01273725 Eh      7.99 kcal/mol|
 --------------------------------------------------------


-------------------
GIBBS FREE ENERGY
-------------------

The Gibbs free energy is G = H - T*S

Total enthalpy                    ...   -764.84982348 Eh 
Total entropy correction          ...     -0.05822105 Eh    -36.53 kcal/mol
-----------------------------------------------------------------------
Final Gibbs free energy         ...   -764.90804452 Eh

For completeness - the Gibbs free energy minus the electronic energy
G-E(el)                           ...      0.00342876 Eh      2.15 kcal/mol


Timings for individual modules:

Sum of individual times         ...     4640.265 sec (=  77.338 min)
GTO integral calculation        ...       40.743 sec (=   0.679 min)   0.9 %
SCF iterations                  ...     2549.883 sec (=  42.498 min)  55.0 %
SCF Gradient evaluation         ...      565.417 sec (=   9.424 min)  12.2 %
Geometry relaxation             ...        0.908 sec (=   0.015 min)   0.0 %
Analytical frequency calculation...     1483.314 sec (=  24.722 min)  32.0 %
                             ****ORCA TERMINATED NORMALLY****
TOTAL RUN TIME: 0 days 1 hours 17 minutes 24 seconds 233 msec
