
                                 *****************
                                 * O   R   C   A *
                                 *****************

                                            #,                                       
                                            ###                                      
                                            ####                                     
                                            #####                                    
                                            ######                                   
                                           ########,                                 
                                     ,,################,,,,,                         
                               ,,#################################,,                 
                          ,,##########################################,,             
                       ,#########################################, ''#####,          
                    ,#############################################,,   '####,        
                  ,##################################################,,,,####,       
                ,###########''''           ''''###############################       
              ,#####''   ,,,,##########,,,,          '''####'''          '####       
            ,##' ,,,,###########################,,,                        '##       
           ' ,,###''''                  '''############,,,                           
         ,,##''                                '''############,,,,        ,,,,,,###''
      ,#''                                            '''#######################'''  
     '                                                          ''''####''''         
             ,#######,   #######,   ,#######,      ##                                
            ,#'     '#,  ##    ##  ,#'     '#,    #''#        ######   ,####,        
            ##       ##  ##   ,#'  ##            #'  '#       #        #'  '#        
            ##       ##  #######   ##           ,######,      #####,   #    #        
            '#,     ,#'  ##    ##  '#,     ,#' ,#      #,         ##   #,  ,#        
             '#######'   ##     ##  '#######'  #'      '#     #####' # '####'        



                  #######################################################
                  #                        -***-                        #
                  #          Department of theory and spectroscopy      #
                  #    Directorship and core code : Frank Neese         #
                  #        Max Planck Institute fuer Kohlenforschung    #
                  #                Kaiser Wilhelm Platz 1               #
                  #                 D-45470 Muelheim/Ruhr               #
                  #                      Germany                        #
                  #                                                     #
                  #                  All rights reserved                #
                  #                        -***-                        #
                  #######################################################



                         Program Version 5.0.4 -  RELEASE  -

 With contributions from (in alphabetic order):
   Daniel Aravena         : Magnetic Suceptibility
   Michael Atanasov       : Ab Initio Ligand Field Theory (pilot matlab implementation)
   Alexander A. Auer      : GIAO ZORA, VPT2 properties, NMR spectrum
   Ute Becker             : Parallelization
   Giovanni Bistoni       : ED, misc. LED, open-shell LED, HFLD
   Martin Brehm           : Molecular dynamics
   Dmytro Bykov           : SCF Hessian
   Vijay G. Chilkuri      : MRCI spin determinant printing, contributions to CSF-ICE
   Dipayan Datta          : RHF DLPNO-CCSD density
   Achintya Kumar Dutta   : EOM-CC, STEOM-CC
   Dmitry Ganyushin       : Spin-Orbit,Spin-Spin,Magnetic field MRCI
   Miquel Garcia          : C-PCM and meta-GGA Hessian, CC/C-PCM, Gaussian charge scheme
   Yang Guo               : DLPNO-NEVPT2, F12-NEVPT2, CIM, IAO-localization
   Andreas Hansen         : Spin unrestricted coupled pair/coupled cluster methods
   Benjamin Helmich-Paris : MC-RPA, TRAH-SCF, COSX integrals
   Lee Huntington         : MR-EOM, pCC
   Robert Izsak           : Overlap fitted RIJCOSX, COSX-SCS-MP3, EOM
   Marcus Kettner         : VPT2
   Christian Kollmar      : KDIIS, OOCD, Brueckner-CCSD(T), CCSD density, CASPT2, CASPT2-K
   Simone Kossmann        : Meta GGA functionals, TD-DFT gradient, OOMP2, MP2 Hessian
   Martin Krupicka        : Initial AUTO-CI
   Lucas Lang             : DCDCAS
   Marvin Lechner         : AUTO-CI (C++ implementation), FIC-MRCC
   Dagmar Lenk            : GEPOL surface, SMD
   Dimitrios Liakos       : Extrapolation schemes; Compound Job, initial MDCI parallelization
   Dimitrios Manganas     : Further ROCIS development; embedding schemes
   Dimitrios Pantazis     : SARC Basis sets
   Anastasios Papadopoulos: AUTO-CI, single reference methods and gradients
   Taras Petrenko         : DFT Hessian,TD-DFT gradient, ASA, ECA, R-Raman, ABS, FL, XAS/XES, NRVS
   Peter Pinski           : DLPNO-MP2, DLPNO-MP2 Gradient
   Christoph Reimann      : Effective Core Potentials
   Marius Retegan         : Local ZFS, SOC
   Christoph Riplinger    : Optimizer, TS searches, QM/MM, DLPNO-CCSD(T), (RO)-DLPNO pert. Triples
   Tobias Risthaus        : Range-separated hybrids, TD-DFT gradient, RPA, STAB
   Michael Roemelt        : Original ROCIS implementation
   Masaaki Saitow         : Open-shell DLPNO-CCSD energy and density
   Barbara Sandhoefer     : DKH picture change effects
   Avijit Sen             : IP-ROCIS
   Kantharuban Sivalingam : CASSCF convergence, NEVPT2, FIC-MRCI
   Bernardo de Souza      : ESD, SOC TD-DFT
   Georgi Stoychev        : AutoAux, RI-MP2 NMR, DLPNO-MP2 response
   Willem Van den Heuvel  : Paramagnetic NMR
   Boris Wezisla          : Elementary symmetry handling
   Frank Wennmohs         : Technical directorship


 We gratefully acknowledge several colleagues who have allowed us to
 interface, adapt or use parts of their codes:
   Stefan Grimme, W. Hujo, H. Kruse, P. Pracht,  : VdW corrections, initial TS optimization,
                  C. Bannwarth, S. Ehlert          DFT functionals, gCP, sTDA/sTD-DF
   Ed Valeev, F. Pavosevic, A. Kumar             : LibInt (2-el integral package), F12 methods
   Garnet Chan, S. Sharma, J. Yang, R. Olivares  : DMRG
   Ulf Ekstrom                                   : XCFun DFT Library
   Mihaly Kallay                                 : mrcc  (arbitrary order and MRCC methods)
   Jiri Pittner, Ondrej Demel                    : Mk-CCSD
   Frank Weinhold                                : gennbo (NPA and NBO analysis)
   Christopher J. Cramer and Donald G. Truhlar   : smd solvation model
   Lars Goerigk                                  : TD-DFT with DH, B97 family of functionals
   V. Asgeirsson, H. Jonsson                     : NEB implementation
   FAccTs GmbH                                   : IRC, NEB, NEB-TS, DLPNO-Multilevel, CI-OPT
                                                   MM, QMMM, 2- and 3-layer-ONIOM, Crystal-QMMM,
                                                   LR-CPCM, SF, NACMEs, symmetry and pop. for TD-DFT,
                                                   nearIR, NL-DFT gradient (VV10), updates on ESD,
                                                   ML-optimized integration grids
   S Lehtola, MJT Oliveira, MAL Marques          : LibXC Library
   Liviu Ungur et al                             : ANISO software


 Your calculation uses the libint2 library for the computation of 2-el integrals
 For citations please refer to: http://libint.valeyev.net

 Your ORCA version has been built with support for libXC version: 5.1.0
 For citations please refer to: https://tddft.org/programs/libxc/

 This ORCA versions uses:
   CBLAS   interface :  Fast vector & matrix operations
   LAPACKE interface :  Fast linear algebra routines
   Shared memory     :  Shared parallel matrices


================================================================================

cite the ECPs for Mo [Def2-ECP] as follows:
Ce-Yb(ecp-28): M. Dolg, H. Stoll, H.Preuss, J. Chem. Phys., 1989, 90, 1730-1734.
Y-Cd(ecp-28), Hf-Hg(ecp-46): D. Andrae,U. Haeussermann, M. Dolg, H. Stoll, H. Preuss, Theor. Chim. Acta, 1990, 77, 123-141.
In-Sb(ecp-28), Tl-Bi(ecp-46): B. Metz, H. Stoll, M. Dolg, J. Chem. Phys., 2000, 113, 2563-2569.
Te-Xe(ecp-28), Po-Rn(ecp-46): K. A. Peterson, D. Figgen, E. Goll, H. Stoll, M. Dolg, J. Chem. Phys., 2003, 119, 11113-11123.
Rb(ecp-28), Cs(ecp-46): T. Leininger, A. Nicklass, W. Kuechle, H. Stoll, M. Dolg, A. Bergner, Chem. Phys. Lett., 1996, 255, 274-280.
Sr(ecp-28), Ba(ecp-46): M. Kaupp, P. V. Schleyer, H. Stoll and H. Preuss, J. Chem. Phys., 1991, 94, 1360-1366.
La(ecp-46): M. Dolg, H. Stoll, A. Savin, H. Preuss, Theor. Chim. Acta, 1989, 75, 173-194.
Lu(ecp-28): X. Cao, M. Dolg, J. Chem. Phys., 2001, 115, 7348-7355.

ECP parameters for Mo [Def2-ECP] have been obtained from:
TURBOMOLE (7.0.2)

----- Orbital basis set information -----
Your calculation utilizes the basis: def2-TZVPD
   F. Weigend and R. Ahlrichs, Phys. Chem. Chem. Phys. 7, 3297 (2005).
   D. Rappoport and F. Furche, J. Chem. Phys. 133 134105 (2010).

----- AuxJ basis set information -----
Your calculation utilizes the auxiliary basis: def2/J
   F. Weigend, Phys. Chem. Chem. Phys. 8, 1057 (2006).

================================================================================
                                        WARNINGS
                       Please study these warnings very carefully!
================================================================================


WARNING: your system is open-shell and RHF/RKS was chosen
  ===> : WILL SWITCH to UHF/UKS


WARNING: Geometry Optimization
  ===> : Switching off AutoStart
         For restart on a previous wavefunction, please use MOREAD

INFO   : the flag for use of the SHARK integral package has been found!

================================================================================
                                       INPUT FILE
================================================================================
NAME = MoCO5NO.inp
|  1> !B3LYP def2-TZVPD OPT FREQ TightSCF PAL8

|  2> 

|  3> %scf

|  4>   MaxIter 300

|  5> end

|  6> 

|  7> * xyz 0 2 

|  8> O         -1.11634        3.48152        0.48558

|  9> O         -4.51866        0.52355       -0.57545

| 10> C         -1.17349        2.37455        0.27643

| 11> C         -3.40501        0.43512       -0.41945

| 12> Mo        -1.28303        0.26611       -0.12169

| 13> C         -1.61319       -0.11095        1.96743

| 14> O         -1.78639       -0.30902        3.06430

| 15> N         -0.95501        0.64028       -2.15648

| 16> C          0.83693        0.09688        0.18256

| 17> C         -1.39357       -1.84568       -0.50896

| 18> O          1.95003        0.00770        0.34200

| 19> O         -1.45208       -2.95363       -0.71232

| 20> O         -1.54099        0.01667       -2.98763

| 21> **                         ****END OF INPUT****
================================================================================

                       *****************************
                       * Geometry Optimization Run *
                       *****************************

Geometry optimization settings:
Update method            Update   .... BFGS
Choice of coordinates    CoordSys .... Z-matrix Internals
Initial Hessian          InHess   .... Almoef's Model

Convergence Tolerances:
Energy Change            TolE     ....  5.0000e-06 Eh
Max. Gradient            TolMAXG  ....  3.0000e-04 Eh/bohr
RMS Gradient             TolRMSG  ....  1.0000e-04 Eh/bohr
Max. Displacement        TolMAXD  ....  4.0000e-03 bohr
RMS Displacement         TolRMSD  ....  2.0000e-03 bohr
Strict Convergence                ....  False
------------------------------------------------------------------------------
                        ORCA OPTIMIZATION COORDINATE SETUP
------------------------------------------------------------------------------

The optimization will be done in new redundant internal coordinates
Making redundant internal coordinates   ...  (new redundants) done
Evaluating the initial hessian          ...  (Almloef) done
Evaluating the coordinates              ...  done
Calculating the B-matrix                .... done
Calculating the G-matrix                .... done
Diagonalizing the G-matrix              .... done
The first mode is                       ....    6
The number of degrees of freedom        ....   33

    -----------------------------------------------------------------
                    Redundant Internal Coordinates


    -----------------------------------------------------------------
         Definition                    Initial Value    Approx d2E/dq
    -----------------------------------------------------------------
      1. B(C   2,O   0)                  1.1280         1.465122   
      2. B(C   3,O   1)                  1.1280         1.465170   
      3. B(Mo  4,C   2)                  2.1485         0.389707   
      4. B(Mo  4,C   3)                  2.1494         0.388374   
      5. B(C   5,Mo  4)                  2.1484         0.389845   
      6. B(O   6,C   5)                  1.1280         1.465214   
      7. B(N   7,Mo  4)                  2.0947         0.425225   
      8. B(C   8,Mo  4)                  2.1484         0.389900   
      9. B(C   9,Mo  4)                  2.1498         0.387768   
     10. B(O  10,C   8)                  1.1280         1.465186   
     11. B(O  11,C   9)                  1.1280         1.465266   
     12. B(O  12,N   7)                  1.1929         1.033788   
     13. L(O   0,C   2,Mo  4,C   3, 1) 179.9828         0.521274   
     14. L(O   0,C   2,Mo  4,C   3, 2) 180.0129         0.521274   
     15. L(O   1,C   3,Mo  4,C   5, 2) 179.9846         0.520943   
     16. L(O   1,C   3,Mo  4,C   5, 1) 179.9843         0.520943   
     17. A(C   2,Mo  4,C   8)           90.0430         0.462058   
     18. A(C   3,Mo  4,C   5)           89.8162         0.461757   
     19. A(C   2,Mo  4,C   5)           89.9932         0.462046   
     20. A(C   2,Mo  4,C   3)           89.9335         0.461727   
     21. A(C   2,Mo  4,N   7)           89.8121         0.467235   
     22. A(C   3,Mo  4,N   7)           90.3428         0.466942   
     23. A(C   8,Mo  4,C   9)           89.9354         0.461637   
     24. A(C   5,Mo  4,C   8)           90.0062         0.462088   
     25. A(N   7,Mo  4,C   8)           89.8347         0.467278   
     26. A(C   3,Mo  4,C   9)           90.0872         0.461306   
     27. A(N   7,Mo  4,C   9)           90.4887         0.466808   
     28. A(C   5,Mo  4,C   9)           89.7058         0.461625   
     29. L(Mo  4,C   5,O   6,C   9, 2) 179.9891         0.521315   
     30. L(Mo  4,C   5,O   6,C   9, 1) 179.9955         0.521315   
     31. A(Mo  4,N   7,O  12)          120.4305         0.490658   
     32. L(Mo  4,C   8,O  10,C   9, 2) 179.9824         0.521327   
     33. L(Mo  4,C   8,O  10,C   9, 1) 179.9810         0.521327   
     34. L(Mo  4,C   9,O  11,C   5, 2) 179.9617         0.520796   
     35. L(Mo  4,C   9,O  11,C   5, 1) 180.0048         0.520796   
     36. D(O  12,N   7,Mo  4,C   3)    -50.9344         0.002390   
     37. D(O  12,N   7,Mo  4,C   8)    129.0897         0.002390   
     38. D(O  12,N   7,Mo  4,C   9)     39.1557         0.002390   
     39. D(O  12,N   7,Mo  4,C   2)   -140.8668         0.002390   
    -----------------------------------------------------------------

Number of atoms                         .... 13
Number of degrees of freedom            .... 39

         *************************************************************
         *                GEOMETRY OPTIMIZATION CYCLE   1            *
         *************************************************************
---------------------------------
CARTESIAN COORDINATES (ANGSTROEM)
---------------------------------
  O     -1.116340    3.481520    0.485580
  O     -4.518660    0.523550   -0.575450
  C     -1.173490    2.374550    0.276430
  C     -3.405010    0.435120   -0.419450
  Mo    -1.283030    0.266110   -0.121690
  C     -1.613190   -0.110950    1.967430
  O     -1.786390   -0.309020    3.064300
  N     -0.955010    0.640280   -2.156480
  C      0.836930    0.096880    0.182560
  C     -1.393570   -1.845680   -0.508960
  O      1.950030    0.007700    0.342000
  O     -1.452080   -2.953630   -0.712320
  O     -1.540990    0.016670   -2.987630

----------------------------
CARTESIAN COORDINATES (A.U.)
----------------------------
  NO LB      ZA    FRAG     MASS         X           Y           Z
   0 O     8.0000    0    15.999   -2.109577    6.579119    0.917613
   1 O     8.0000    0    15.999   -8.539030    0.989366   -1.087443
   2 C     6.0000    0    12.011   -2.217575    4.487249    0.522377
   3 C     6.0000    0    12.011   -6.434536    0.822258   -0.792646
   4 Mo   14.0000*   0    95.940   -2.424575    0.502875   -0.229961
   5 C     6.0000    0    12.011   -3.048487   -0.209665    3.717904
   6 O     8.0000    0    15.999   -3.375788   -0.583963    5.790688
   7 N     7.0000    0    14.007   -1.804707    1.209954   -4.075157
   8 C     6.0000    0    12.011    1.581568    0.183077    0.344988
   9 C     6.0000    0    12.011   -2.633466   -3.487830   -0.961795
  10 O     8.0000    0    15.999    3.685023    0.014551    0.646286
  11 O     8.0000    0    15.999   -2.744034   -5.581552   -1.346090
  12 O     8.0000    0    15.999   -2.912049    0.031502   -5.645802
* core charge reduced due to ECP

--------------------------------
INTERNAL COORDINATES (ANGSTROEM)
--------------------------------
 O      0   0   0     0.000000000000     0.00000000     0.00000000
 O      1   0   0     4.631538898055     0.00000000     0.00000000
 C      1   2   0     1.128003734879    45.05368131     0.00000000
 C      2   1   3     1.127994763906    45.01912657     0.00000000
 Mo     3   1   2     2.148491978016   179.98054168   331.92095212
 C      5   3   1     2.148395271732    89.99321829   298.27419301
 O      6   5   3     1.127986596463   179.99101192   239.66583519
 N      5   3   1     2.094748350853    89.81214708   118.43341926
 C      5   3   1     2.148356873753    90.04298521   208.26797423
 C      5   3   1     2.149849796753   179.69826268   294.15169386
 O      9   5   3     1.127991930822   179.97726846   212.90133305
 O     10   5   8     1.127976911200   179.97245732   279.94158319
 O      8   5   3     1.192925946989   120.43054689   219.13320622

---------------------------
INTERNAL COORDINATES (A.U.)
---------------------------
 O      0   0   0     0.000000000000     0.00000000     0.00000000
 O      1   0   0     8.752340095928     0.00000000     0.00000000
 C      1   2   0     2.131618136961    45.05368131     0.00000000
 C      2   1   3     2.131601184280    45.01912657     0.00000000
 Mo     3   1   2     4.060061439377   179.98054168   331.92095212
 C      5   3   1     4.059878690985    89.99321829   298.27419301
 O      6   5   3     2.131585750049   179.99101192   239.66583519
 N      5   3   1     3.958500702595    89.81214708   118.43341926
 C      5   3   1     4.059806129320    90.04298521   208.26797423
 C      5   3   1     4.062627344930   179.69826268   294.15169386
 O      9   5   3     2.131595830527   179.97726846   212.90133305
 O     10   5   8     2.131567447554   179.97245732   279.94158319
 O      8   5   3     2.254303337858   120.43054689   219.13320622

---------------------
BASIS SET INFORMATION
---------------------
There are 4 groups of distinct atoms

 Group   1 Type O   : 12s7p3d1f contracted to 6s4p3d1f pattern {621111/4111/111/1}
 Group   2 Type C   : 12s6p3d1f contracted to 6s3p3d1f pattern {621111/411/111/1}
 Group   3 Type Mo  : 7s7p5d1f contracted to 6s4p3d1f pattern {211111/4111/311/1}
 Group   4 Type N   : 12s6p3d1f contracted to 6s3p3d1f pattern {621111/411/111/1}

Atom   0O    basis set group =>   1
Atom   1O    basis set group =>   1
Atom   2C    basis set group =>   2
Atom   3C    basis set group =>   2
Atom   4Mo   basis set group =>   3
Atom   5C    basis set group =>   2
Atom   6O    basis set group =>   1
Atom   7N    basis set group =>   4
Atom   8C    basis set group =>   2
Atom   9C    basis set group =>   2
Atom  10O    basis set group =>   1
Atom  11O    basis set group =>   1
Atom  12O    basis set group =>   1
---------------------------------
AUXILIARY/J BASIS SET INFORMATION
---------------------------------
There are 4 groups of distinct atoms

 Group   1 Type O   : 12s5p4d2f1g contracted to 6s4p3d1f1g pattern {711111/2111/211/2/1}
 Group   2 Type C   : 12s5p4d2f1g contracted to 6s4p3d1f1g pattern {711111/2111/211/2/1}
 Group   3 Type Mo  : 11s5p5d3f3g contracted to 8s5p5d2f3g pattern {41111111/11111/11111/21/111}
 Group   4 Type N   : 12s5p4d2f1g contracted to 6s4p3d1f1g pattern {711111/2111/211/2/1}

Atom   0O    basis set group =>   1
Atom   1O    basis set group =>   1
Atom   2C    basis set group =>   2
Atom   3C    basis set group =>   2
Atom   4Mo   basis set group =>   3
Atom   5C    basis set group =>   2
Atom   6O    basis set group =>   1
Atom   7N    basis set group =>   4
Atom   8C    basis set group =>   2
Atom   9C    basis set group =>   2
Atom  10O    basis set group =>   1
Atom  11O    basis set group =>   1
Atom  12O    basis set group =>   1
-------------------------
ECP PARAMETER INFORMATION
-------------------------

 Group 1, Type Mo ECP Def2-ECP (replacing 28 core electrons, lmax=3)

Atom   4Mo   ECP group =>   1



           ************************************************************
           *        Program running with 8 parallel MPI-processes     *
           *              working on a common directory               *
           ************************************************************
------------------------------------------------------------------------------
                           ORCA GTO INTEGRAL CALCULATION
                           -- RI-GTO INTEGRALS CHOSEN --
------------------------------------------------------------------------------
------------------------------------------------------------------------------
                   ___                                                        
                  /   \      - P O W E R E D   B Y -                         
                 /     \                                                     
                 |  |  |   _    _      __       _____    __    __             
                 |  |  |  | |  | |    /  \     |  _  \  |  |  /  |          
                  \  \/   | |  | |   /    \    | | | |  |  | /  /          
                 / \  \   | |__| |  /  /\  \   | |_| |  |  |/  /          
                |  |  |   |  __  | /  /__\  \  |    /   |      \           
                |  |  |   | |  | | |   __   |  |    \   |  |\   \          
                \     /   | |  | | |  |  |  |  | |\  \  |  | \   \       
                 \___/    |_|  |_| |__|  |__|  |_| \__\ |__|  \__/        
                                                                              
                      - O R C A' S   B I G   F R I E N D -                    
                                      &                                       
                       - I N T E G R A L  F E E D E R -                       
                                                                              
 v1 FN, 2020, v2 2021                                                         
------------------------------------------------------------------------------


Reading SHARK input file MoCO5NO.SHARKINP.tmp ... ok
----------------------
SHARK INTEGRAL PACKAGE
----------------------

Number of atoms                             ...     13
Number of basis functions                   ...    502
Number of shells                            ...    176
Maximum angular momentum                    ...      3
Integral batch strategy                     ... SHARK/LIBINT Hybrid
RI-J (if used) integral strategy            ... SPLIT-RIJ (Revised 2003 algorithm where possible)
Printlevel                                  ...      1
Contraction scheme used                     ... SEGMENTED contraction
Coulomb Range Separation                    ... NOT USED
Exchange Range Separation                   ... NOT USED
Finite Nucleus Model                        ... NOT USED
Auxiliary Coulomb fitting basis             ... AVAILABLE
   # of basis functions in Aux-J            ...    677
   # of shells in Aux-J                     ...    203
   Maximum angular momentum in Aux-J        ...      4
Auxiliary J/K fitting basis                 ... NOT available
Auxiliary Correlation fitting basis         ... NOT available
Auxiliary 'external' fitting basis          ... NOT available
Integral threshold                          ...     2.500000e-11
Primitive cut-off                           ...     2.500000e-12
Primitive pair pre-selection threshold      ...     2.500000e-12

Calculating pre-screening integrals         ... done (  0.1 sec) Dimension = 176
Organizing shell pair data                  ... done (  0.3 sec)
Shell pair information
Total number of shell pairs                 ...     15576
Shell pairs after pre-screening             ...     13379
Total number of primitive shell pairs       ...     42469
Primitive shell pairs kept                  ...     26813
          la=0 lb=0:   2459 shell pairs
          la=1 lb=0:   3196 shell pairs
          la=1 lb=1:   1018 shell pairs
          la=2 lb=0:   2564 shell pairs
          la=2 lb=1:   1636 shell pairs
          la=2 lb=2:    698 shell pairs
          la=3 lb=0:    760 shell pairs
          la=3 lb=1:    538 shell pairs
          la=3 lb=2:    439 shell pairs
          la=3 lb=3:     71 shell pairs

Calculating one electron integrals          ... done (  0.0 sec)
Calculating ECP integrals                   ... done (  1.3 sec)
Calculating RI/J V-Matrix + Cholesky decomp.... done (  0.1 sec)
Calculating Nuclear repulsion               ... done (  0.0 sec) ENN=    768.950491045277 Eh

SHARK setup successfully completed in   2.1 seconds

Maximum memory used throughout the entire GTOINT-calculation: 25.2 MB


           ************************************************************
           *        Program running with 8 parallel MPI-processes     *
           *              working on a common directory               *
           ************************************************************
-------------------------------------------------------------------------------
                                 ORCA SCF
-------------------------------------------------------------------------------

------------
SCF SETTINGS
------------
Hamiltonian:
 Density Functional     Method          .... DFT(GTOs)
 Exchange Functional    Exchange        .... B88
   X-Alpha parameter    XAlpha          ....  0.666667
   Becke's b parameter  XBeta           ....  0.004200
 Correlation Functional Correlation     .... LYP
 LDA part of GGA corr.  LDAOpt          .... VWN-5
 Gradients option       PostSCFGGA      .... off
 Hybrid DFT is turned on
   Fraction HF Exchange ScalHFX         ....  0.200000
   Scaling of DF-GGA-X  ScalDFX         ....  0.720000
   Scaling of DF-GGA-C  ScalDFC         ....  0.810000
   Scaling of DF-LDA-C  ScalLDAC        ....  1.000000
   Perturbative correction              ....  0.000000
   Density functional embedding theory  .... OFF
   NL short-range parameter             ....  4.800000
 RI-approximation to the Coulomb term is turned on
   Number of AuxJ basis functions       .... 677
   RIJ-COSX (HFX calculated with COS-X)).... on


General Settings:
 Integral files         IntName         .... MoCO5NO
 Hartree-Fock type      HFTyp           .... UHF
 Total Charge           Charge          ....    0
 Multiplicity           Mult            ....    2
 Number of Electrons    NEL             ....   99
 Basis Dimension        Dim             ....  502
 Nuclear Repulsion      ENuc            ....    768.9504910453 Eh

Convergence Acceleration:
 DIIS                   CNVDIIS         .... on
   Start iteration      DIISMaxIt       ....    12
   Startup error        DIISStart       ....  0.200000
   # of expansion vecs  DIISMaxEq       ....     5
   Bias factor          DIISBfac        ....   1.050
   Max. coefficient     DIISMaxC        ....  10.000
 Trust-Rad. Augm. Hess. CNVTRAH         .... auto
   Auto Start mean grad. ratio tolernc. ....  1.125000
   Auto Start start iteration           ....    20
   Auto Start num. interpolation iter.  ....    10
   Max. Number of Micro iterations      ....    16
   Max. Number of Macro iterations      .... Maxiter - #DIIS iter
   Number of Davidson start vectors     ....     2
   Converg. threshold I  (grad. norm)   ....   1.000e-05
   Converg. threshold II (energy diff.) ....   1.000e-08
   Grad. Scal. Fac. for Micro threshold ....   0.100
   Minimum threshold for Micro iter.    ....   0.010
   NR start threshold (gradient norm)   ....   0.001
   Initial trust radius                 ....   0.400
   Minimum AH scaling param. (alpha)    ....   1.000
   Maximum AH scaling param. (alpha)    .... 1000.000
   Orbital update algorithm             .... Taylor
   White noise on init. David. guess    .... on
   Maximum white noise                  ....   0.010
   Quad. conv. algorithm                .... NR
 SOSCF                  CNVSOSCF        .... off
 Level Shifting         CNVShift        .... on
   Level shift para.    LevelShift      ....    0.2500
   Turn off err/grad.   ShiftErr        ....    0.0010
 Zerner damping         CNVZerner       .... off
 Static damping         CNVDamp         .... on
   Fraction old density DampFac         ....    0.7000
   Max. Damping (<1)    DampMax         ....    0.9800
   Min. Damping (>=0)   DampMin         ....    0.0000
   Turn off err/grad.   DampErr         ....    0.1000
 Fernandez-Rico         CNVRico         .... off

SCF Procedure:
 Maximum # iterations   MaxIter         ....   300
 SCF integral mode      SCFMode         .... Direct
   Integral package                     .... SHARK and LIBINT hybrid scheme
 Reset frequency        DirectResetFreq ....    20
 Integral Threshold     Thresh          ....  2.500e-11 Eh
 Primitive CutOff       TCut            ....  2.500e-12 Eh

Convergence Tolerance:
 Convergence Check Mode ConvCheckMode   .... Total+1el-Energy
 Convergence forced     ConvForced      .... 0
 Energy Change          TolE            ....  1.000e-08 Eh
 1-El. energy change                    ....  1.000e-05 Eh
 DIIS Error             TolErr          ....  5.000e-07


Diagonalization of the overlap matrix:
Smallest eigenvalue                        ... 9.377e-06
Time for diagonalization                   ...    0.080 sec
Threshold for overlap eigenvalues          ... 1.000e-08
Number of eigenvalues below threshold      ... 0
Time for construction of square roots      ...    0.122 sec
Total time needed                          ...    0.203 sec

Time for model grid setup =    0.152 sec

------------------------------
INITIAL GUESS: MODEL POTENTIAL
------------------------------
Loading Hartree-Fock densities                     ... done
  calling C:\orca_5_0_4\orca MoCO5NO_atom42.inp > MoCO5NO_atom42.out in order to generate an atomic fitting density for atom 4 (Mo with ECP) on-the-fly... 
    atom 4 (Mo), assumed electronic state with S=5: 1s2 2s2 2p6 3s2 3p6 4s2 3d10 4p6 5s2 4d4           ... done
Calculating cut-offs                               ... done
Initializing the effective Hamiltonian             ... done
Setting up the integral package (SHARK)            ... done
Starting the Coulomb interaction                   ... done (   0.1 sec)
Reading the grid                                   ... done
Mapping shells                                     ... done
Starting the XC term evaluation                    ... done (   0.2 sec)
  promolecular density results
     # of electrons  =    127.000213804
     EX              =   -201.005627219
     EC              =     -5.117198583
     EX+EC           =   -206.122825801
Transforming the Hamiltonian                       ... done (   0.1 sec)
Diagonalizing the Hamiltonian                      ... done (   0.1 sec)
Back transforming the eigenvectors                 ... done (   0.0 sec)
Now organizing SCF variables                       ... done
                      ------------------
                      INITIAL GUESS DONE (   3.6 sec)
                      ------------------
-------------------
DFT GRID GENERATION
-------------------

General Integration Accuracy     IntAcc      ... 4.388
Radial Grid Type                 RadialGrid  ... OptM3 with GC (2021)
Angular Grid (max. ang.)         AngularGrid ... 4 (Lebedev-302)
Angular grid pruning method      GridPruning ... 4 (adaptive)
Weight generation scheme         WeightScheme... Becke
Basis function cutoff            BFCut       ... 1.0000e-11
Integration weight cutoff        WCut        ... 1.0000e-14
Angular grids for H and He will be reduced by one unit
Partially contracted basis set               ... off
Rotationally invariant grid construction     ... off

Total number of grid points                  ...    87470
Total number of batches                      ...     1373
Average number of points per batch           ...       63
Average number of grid points per atom       ...     6728
Time for grid setup =    0.639 sec

--------------------
COSX GRID GENERATION
--------------------

GRIDX 1
-------
General Integration Accuracy     IntAcc      ... 3.816
Radial Grid Type                 RadialGrid  ... OptM3 with GC (2021)
Angular Grid (max. ang.)         AngularGrid ... 1 (Lebedev-50)
Angular grid pruning method      GridPruning ... 4 (adaptive)
Weight generation scheme         WeightScheme... Becke
Basis function cutoff            BFCut       ... 1.0000e-11
Integration weight cutoff        WCut        ... 1.0000e-14
Angular grids for H and He will be reduced by one unit
Partially contracted basis set               ... on
Rotationally invariant grid construction     ... off

Total number of grid points                  ...    10850
Total number of batches                      ...      176
Average number of points per batch           ...       61
Average number of grid points per atom       ...      835
UseSFitting                                  ... on

GRIDX 2
-------
General Integration Accuracy     IntAcc      ... 4.020
Radial Grid Type                 RadialGrid  ... OptM3 with GC (2021)
Angular Grid (max. ang.)         AngularGrid ... 2 (Lebedev-110)
Angular grid pruning method      GridPruning ... 4 (adaptive)
Weight generation scheme         WeightScheme... Becke
Basis function cutoff            BFCut       ... 1.0000e-11
Integration weight cutoff        WCut        ... 1.0000e-14
Angular grids for H and He will be reduced by one unit
Partially contracted basis set               ... on
Rotationally invariant grid construction     ... off

Total number of grid points                  ...    29057
Total number of batches                      ...      460
Average number of points per batch           ...       63
Average number of grid points per atom       ...     2235
UseSFitting                                  ... on

GRIDX 3
-------
General Integration Accuracy     IntAcc      ... 4.338
Radial Grid Type                 RadialGrid  ... OptM3 with GC (2021)
Angular Grid (max. ang.)         AngularGrid ... 3 (Lebedev-194)
Angular grid pruning method      GridPruning ... 4 (adaptive)
Weight generation scheme         WeightScheme... Becke
Basis function cutoff            BFCut       ... 1.0000e-11
Integration weight cutoff        WCut        ... 1.0000e-14
Angular grids for H and He will be reduced by one unit
Partially contracted basis set               ... on
Rotationally invariant grid construction     ... off

Total number of grid points                  ...    62176
Total number of batches                      ...      979
Average number of points per batch           ...       63
Average number of grid points per atom       ...     4783
UseSFitting                                  ... on

Time for X-Grid setup             =    1.615 sec

--------------
SCF ITERATIONS
--------------
ITER       Energy         Delta-E        Max-DP      RMS-DP      [F,P]     Damp
               ***  Starting incremental Fock matrix formation  ***
  0   -764.5363008547   0.000000000000 0.09841687  0.00046618  0.2151992 0.7000
  1   -764.6907211027  -0.154420248001 0.06144409  0.00029976  0.1398505 0.7000
                               ***Turning on DIIS***
  2   -764.7302879355  -0.039566832828 0.07076605  0.00049154  0.0916790 0.0000
  3   -764.8222326675  -0.091944731980 0.02932765  0.00021471  0.0206121 0.0000
  4   -764.8294069795  -0.007174311975 0.02552752  0.00012457  0.0221437 0.0000
  5   -764.8361544013  -0.006747421854 0.00468836  0.00004639  0.0041980 0.0000
  6   -764.8365260024  -0.000371601092 0.00441306  0.00002491  0.0043762 0.0000
  7   -764.8368420851  -0.000316082713 0.00220453  0.00001790  0.0016668 0.0000
  8   -764.8369427871  -0.000100701975 0.00242825  0.00003450  0.0006250 0.0000
               *** Restarting incremental Fock matrix formation ***
                                   *** Resetting DIIS ***
  9   -764.8370403162  -0.000097529074 0.00112316  0.00002223  0.0005064 0.0000
 10   -764.8370644727  -0.000024156488 0.00026203  0.00000321  0.0011898 0.0000
 11   -764.8370785763  -0.000014103580 0.00075339  0.00001331  0.0003880 0.0000
 12   -764.8370955185  -0.000016942240 0.00079394  0.00001240  0.0003180 0.0000
 13   -764.8371036564  -0.000008137897 0.00072713  0.00001013  0.0004548 0.0000
 14   -764.8371111651  -0.000007508655 0.00026351  0.00000252  0.0002540 0.0000
 15   -764.8371118615  -0.000000696436 0.00048557  0.00000843  0.0002258 0.0000
 16   -764.8371145206  -0.000002659091 0.00012307  0.00000172  0.0000862 0.0000
 17   -764.8371145109   0.000000009679 0.00021261  0.00000153  0.0001417 0.0000
 18   -764.8371148646  -0.000000353675 0.00020380  0.00000235  0.0000395 0.0000
 19   -764.8371149784  -0.000000113779 0.00013009  0.00000082  0.0000852 0.0000
 20   -764.8371150510  -0.000000072648 0.00006623  0.00000073  0.0000477 0.0000
 21   -764.8371150937  -0.000000042678 0.00004418  0.00000062  0.0000300 0.0000
 22   -764.8371151373  -0.000000043666 0.00014314  0.00000128  0.0000201 0.0000
 23   -764.8371151650  -0.000000027700 0.00009249  0.00000074  0.0000181 0.0000
 24   -764.8371151757  -0.000000010672 0.00018589  0.00000137  0.0000186 0.0000
 25   -764.8371151867  -0.000000010972 0.00019234  0.00000137  0.0000085 0.0000
 26   -764.8371151731   0.000000013574 0.00002668  0.00000030  0.0000213 0.0000
 27   -764.8371152052  -0.000000032094 0.00003923  0.00000047  0.0000090 0.0000
 28   -764.8371152172  -0.000000011970 0.00046622  0.00000196  0.0000076 0.0000
               *** Restarting incremental Fock matrix formation ***
                                   *** Resetting DIIS ***
 29   -764.8371152077   0.000000009528 0.00094580  0.00000380  0.0000030 0.0000
 30   -764.8371152106  -0.000000002992 0.00002734  0.00000025  0.0000065 0.0000
 31   -764.8371152155  -0.000000004855 0.00009092  0.00000073  0.0000024 0.0000
 32   -764.8371152125   0.000000003033 0.00014562  0.00000126  0.0000030 0.0000
 33   -764.8371152207  -0.000000008241 0.00013491  0.00000079  0.0000013 0.0000
                 **** Energy Check signals convergence ****

               *****************************************************
               *                     SUCCESS                       *
               *           SCF CONVERGED AFTER  34 CYCLES          *
               *****************************************************

Old exchange energy                            =    -17.692534864 Eh
New exchange energy                            =    -17.692541428 Eh
Exchange energy change after final integration =     -0.000006565 Eh
Total energy after final integration           =   -764.837121781 Eh
Final COS-X integration done in                =    11.747 sec

----------------
TOTAL SCF ENERGY
----------------

Total Energy       :         -764.83712178 Eh          -20812.27616 eV

Components:
Nuclear Repulsion  :          768.95049105 Eh           20924.20663 eV
Electronic Energy  :        -1533.78761283 Eh          -41736.48279 eV
One Electron Energy:        -2596.37452140 Eh          -70650.94255 eV
Two Electron Energy:         1062.58690857 Eh           28914.45976 eV
Max COSX asymmetry :            0.00000178 Eh               0.00005 eV

Virial components:
Potential Energy   :        -1482.13013469 Eh          -40330.81134 eV
Kinetic Energy     :          717.29301291 Eh           19518.53518 eV
Virial Ratio       :            2.06628269


DFT components:
N(Alpha)           :       49.999945890099 electrons
N(Beta)            :       48.999956092711 electrons
N(Total)           :       98.999901982810 electrons
E(X)               :      -70.820861888785 Eh       
E(C)               :       -4.104531309393 Eh       
E(XC)              :      -74.925393198177 Eh       
DFET-embed. en.    :        0.000000000000 Eh       

---------------
SCF CONVERGENCE
---------------

  Last Energy change         ...    4.2994e-09  Tolerance :   1.0000e-08
  Last MAX-Density change    ...    0.0000e+00  Tolerance :   1.0000e-07
  Last RMS-Density change    ...    0.0000e+00  Tolerance :   5.0000e-09
  Last DIIS Error            ...    9.3134e-07  Tolerance :   5.0000e-07

             **** THE GBW FILE WAS UPDATED (MoCO5NO.gbw) ****
             **** DENSITY MoCO5NO.scfp WAS UPDATED ****
             **** ENERGY FILE WAS UPDATED (MoCO5NO.en.tmp) ****
----------------------
UHF SPIN CONTAMINATION
----------------------

Warning: in a DFT calculation there is little theoretical justification to 
         calculate <S**2> as in Hartree-Fock theory. We will do it anyways
         but you should keep in mind that the values have only limited relevance

Expectation value of <S**2>     :     0.774098
Ideal value S*(S+1) for S=0.5   :     0.750000
Deviation                       :     0.024098

             **** THE GBW FILE WAS UPDATED (MoCO5NO.gbw) ****
             **** DENSITY MoCO5NO.scfp WAS UPDATED ****
----------------
ORBITAL ENERGIES
----------------
                 SPIN UP ORBITALS
  NO   OCC          E(Eh)            E(eV) 
   0   1.0000     -19.247257      -523.7445 
   1   1.0000     -19.231242      -523.3087 
   2   1.0000     -19.229810      -523.2697 
   3   1.0000     -19.229440      -523.2597 
   4   1.0000     -19.228202      -523.2260 
   5   1.0000     -19.224598      -523.1279 
   6   1.0000     -14.462828      -393.5536 
   7   1.0000     -10.305573      -280.4289 
   8   1.0000     -10.305052      -280.4147 
   9   1.0000     -10.303694      -280.3778 
  10   1.0000     -10.303304      -280.3672 
  11   1.0000     -10.301122      -280.3078 
  12   1.0000      -2.576721       -70.1161 
  13   1.0000      -1.578862       -42.9630 
  14   1.0000      -1.578628       -42.9566 
  15   1.0000      -1.574357       -42.8404 
  16   1.0000      -1.211692       -32.9718 
  17   1.0000      -1.169886       -31.8342 
  18   1.0000      -1.168865       -31.8064 
  19   1.0000      -1.168248       -31.7897 
  20   1.0000      -1.167377       -31.7660 
  21   1.0000      -1.164548       -31.6890 
  22   1.0000      -0.710777       -19.3412 
  23   1.0000      -0.598063       -16.2741 
  24   1.0000      -0.583989       -15.8911 
  25   1.0000      -0.582190       -15.8422 
  26   1.0000      -0.580794       -15.8042 
  27   1.0000      -0.579892       -15.7797 
  28   1.0000      -0.540361       -14.7040 
  29   1.0000      -0.510515       -13.8918 
  30   1.0000      -0.505298       -13.7499 
  31   1.0000      -0.493563       -13.4305 
  32   1.0000      -0.492531       -13.4024 
  33   1.0000      -0.488877       -13.3030 
  34   1.0000      -0.488308       -13.2875 
  35   1.0000      -0.485409       -13.2087 
  36   1.0000      -0.484435       -13.1822 
  37   1.0000      -0.483712       -13.1625 
  38   1.0000      -0.482116       -13.1190 
  39   1.0000      -0.478794       -13.0287 
  40   1.0000      -0.477901       -13.0043 
  41   1.0000      -0.477256       -12.9868 
  42   1.0000      -0.468549       -12.7499 
  43   1.0000      -0.443729       -12.0745 
  44   1.0000      -0.424391       -11.5483 
  45   1.0000      -0.422750       -11.5036 
  46   1.0000      -0.260265        -7.0822 
  47   1.0000      -0.245494        -6.6802 
  48   1.0000      -0.241765        -6.5787 
  49   1.0000      -0.226791        -6.1713 
  50   0.0000      -0.125725        -3.4212 
  51   0.0000      -0.074122        -2.0170 
  52   0.0000      -0.060722        -1.6523 
  53   0.0000      -0.058548        -1.5932 
  54   0.0000      -0.043654        -1.1879 
  55   0.0000      -0.024718        -0.6726 
  56   0.0000      -0.019358        -0.5268 
  57   0.0000      -0.005633        -0.1533 
  58   0.0000      -0.002299        -0.0626 
  59   0.0000       0.005140         0.1399 
  60   0.0000       0.008284         0.2254 
  61   0.0000       0.009360         0.2547 
  62   0.0000       0.018382         0.5002 
  63   0.0000       0.019426         0.5286 
  64   0.0000       0.021722         0.5911 
  65   0.0000       0.022040         0.5997 
  66   0.0000       0.039216         1.0671 
  67   0.0000       0.054828         1.4919 
  68   0.0000       0.056220         1.5298 
  69   0.0000       0.057664         1.5691 
  70   0.0000       0.058640         1.5957 
  71   0.0000       0.060247         1.6394 
  72   0.0000       0.076896         2.0924 
  73   0.0000       0.077434         2.1071 
  74   0.0000       0.081376         2.2144 
  75   0.0000       0.090875         2.4728 
  76   0.0000       0.092081         2.5057 
  77   0.0000       0.093622         2.5476 
  78   0.0000       0.095122         2.5884 
  79   0.0000       0.114017         3.1026 
  80   0.0000       0.128018         3.4835 
  81   0.0000       0.132259         3.5990 
  82   0.0000       0.132724         3.6116 
  83   0.0000       0.135398         3.6844 
  84   0.0000       0.136079         3.7029 
  85   0.0000       0.142347         3.8734 
  86   0.0000       0.142774         3.8851 
  87   0.0000       0.165308         4.4983 
  88   0.0000       0.179628         4.8879 
  89   0.0000       0.189122         5.1463 
  90   0.0000       0.194811         5.3011 
  91   0.0000       0.195130         5.3098 
  92   0.0000       0.209222         5.6932 
  93   0.0000       0.214220         5.8292 
  94   0.0000       0.218437         5.9440 
  95   0.0000       0.221699         6.0327 
  96   0.0000       0.226147         6.1538 
  97   0.0000       0.236478         6.4349 
  98   0.0000       0.238657         6.4942 
  99   0.0000       0.245985         6.6936 
 100   0.0000       0.248432         6.7602 
 101   0.0000       0.249659         6.7936 
 102   0.0000       0.255629         6.9560 
 103   0.0000       0.263445         7.1687 
 104   0.0000       0.270529         7.3615 
 105   0.0000       0.272496         7.4150 
 106   0.0000       0.274406         7.4670 
 107   0.0000       0.275517         7.4972 
 108   0.0000       0.286242         7.7890 
 109   0.0000       0.288664         7.8549 
 110   0.0000       0.290794         7.9129 
 111   0.0000       0.294157         8.0044 
 112   0.0000       0.303586         8.2610 
 113   0.0000       0.314341         8.5537 
 114   0.0000       0.319069         8.6823 
 115   0.0000       0.334399         9.0995 
 116   0.0000       0.338053         9.1989 
 117   0.0000       0.338842         9.2204 
 118   0.0000       0.339940         9.2502 
 119   0.0000       0.340486         9.2651 
 120   0.0000       0.341959         9.3052 
 121   0.0000       0.343253         9.3404 
 122   0.0000       0.344385         9.3712 
 123   0.0000       0.349341         9.5061 
 124   0.0000       0.351128         9.5547 
 125   0.0000       0.373348        10.1593 
 126   0.0000       0.376651        10.2492 
 127   0.0000       0.381689        10.3863 
 128   0.0000       0.400663        10.9026 
 129   0.0000       0.424129        11.5411 
 130   0.0000       0.427013        11.6196 
 131   0.0000       0.430233        11.7072 
 132   0.0000       0.434385        11.8202 
 133   0.0000       0.446404        12.1473 
 134   0.0000       0.449095        12.2205 
 135   0.0000       0.471013        12.8169 
 136   0.0000       0.472623        12.8607 
 137   0.0000       0.476530        12.9670 
 138   0.0000       0.485368        13.2075 
 139   0.0000       0.487334        13.2610 
 140   0.0000       0.492763        13.4088 
 141   0.0000       0.493922        13.4403 
 142   0.0000       0.498150        13.5553 
 143   0.0000       0.501562        13.6482 
 144   0.0000       0.509513        13.8646 
 145   0.0000       0.511951        13.9309 
 146   0.0000       0.519959        14.1488 
 147   0.0000       0.528508        14.3814 
 148   0.0000       0.536062        14.5870 
 149   0.0000       0.536425        14.5969 
 150   0.0000       0.540744        14.7144 
 151   0.0000       0.542084        14.7509 
 152   0.0000       0.545151        14.8343 
 153   0.0000       0.547602        14.9010 
 154   0.0000       0.551563        15.0088 
 155   0.0000       0.553136        15.0516 
 156   0.0000       0.556484        15.1427 
 157   0.0000       0.558950        15.2098 
 158   0.0000       0.567501        15.4425 
 159   0.0000       0.578318        15.7368 
 160   0.0000       0.585932        15.9440 
 161   0.0000       0.588804        16.0222 
 162   0.0000       0.617429        16.8011 
 163   0.0000       0.623040        16.9538 
 164   0.0000       0.630384        17.1536 
 165   0.0000       0.635220        17.2852 
 166   0.0000       0.641809        17.4645 
 167   0.0000       0.645333        17.5604 
 168   0.0000       0.653361        17.7788 
 169   0.0000       0.664384        18.0788 
 170   0.0000       0.674343        18.3498 
 171   0.0000       0.678115        18.4525 
 172   0.0000       0.679881        18.5005 
 173   0.0000       0.689699        18.7677 
 174   0.0000       0.696675        18.9575 
 175   0.0000       0.704890        19.1810 
 176   0.0000       0.708578        19.2814 
 177   0.0000       0.710920        19.3451 
 178   0.0000       0.717584        19.5264 
 179   0.0000       0.721016        19.6199 
 180   0.0000       0.739402        20.1201 
 181   0.0000       0.743923        20.2432 
 182   0.0000       0.757662        20.6170 
 183   0.0000       0.763540        20.7770 
 184   0.0000       0.766286        20.8517 
 185   0.0000       0.786363        21.3980 
 186   0.0000       0.790500        21.5106 
 187   0.0000       0.794999        21.6330 
 188   0.0000       0.798042        21.7158 
 189   0.0000       0.819490        22.2994 
 190   0.0000       0.823630        22.4121 
 191   0.0000       0.834875        22.7181 
 192   0.0000       0.838071        22.8051 
 193   0.0000       0.846995        23.0479 
 194   0.0000       0.852009        23.1843 
 195   0.0000       0.855282        23.2734 
 196   0.0000       0.858623        23.3643 
 197   0.0000       0.860104        23.4046 
 198   0.0000       0.860862        23.4253 
 199   0.0000       0.866718        23.5846 
 200   0.0000       0.867415        23.6035 
 201   0.0000       0.879233        23.9252 
 202   0.0000       0.882999        24.0276 
 203   0.0000       0.893166        24.3043 
 204   0.0000       0.903133        24.5755 
 205   0.0000       0.905271        24.6337 
 206   0.0000       0.914086        24.8735 
 207   0.0000       0.914286        24.8790 
 208   0.0000       0.917585        24.9688 
 209   0.0000       0.921122        25.0650 
 210   0.0000       0.928435        25.2640 
 211   0.0000       0.933557        25.4034 
 212   0.0000       0.941422        25.6174 
 213   0.0000       0.951683        25.8966 
 214   0.0000       0.955170        25.9915 
 215   0.0000       0.958210        26.0742 
 216   0.0000       0.972962        26.4756 
 217   0.0000       0.977830        26.6081 
 218   0.0000       0.998021        27.1575 
 219   0.0000       1.014062        27.5940 
 220   0.0000       1.027629        27.9632 
 221   0.0000       1.037011        28.2185 
 222   0.0000       1.049087        28.5471 
 223   0.0000       1.070713        29.1356 
 224   0.0000       1.071501        29.1570 
 225   0.0000       1.099038        29.9064 
 226   0.0000       1.105696        30.0875 
 227   0.0000       1.120097        30.4794 
 228   0.0000       1.126203        30.6455 
 229   0.0000       1.145279        31.1646 
 230   0.0000       1.152614        31.3642 
 231   0.0000       1.180304        32.1177 
 232   0.0000       1.199311        32.6349 
 233   0.0000       1.218854        33.1667 
 234   0.0000       1.237815        33.6826 
 235   0.0000       1.273443        34.6521 
 236   0.0000       1.274511        34.6812 
 237   0.0000       1.279409        34.8145 
 238   0.0000       1.297499        35.3067 
 239   0.0000       1.306684        35.5567 
 240   0.0000       1.311326        35.6830 
 241   0.0000       1.356132        36.9022 
 242   0.0000       1.370343        37.2889 
 243   0.0000       1.387355        37.7518 
 244   0.0000       1.396940        38.0127 
 245   0.0000       1.403191        38.1828 
 246   0.0000       1.427307        38.8390 
 247   0.0000       1.544022        42.0150 
 248   0.0000       1.548378        42.1335 
 249   0.0000       1.553350        42.2688 
 250   0.0000       1.574176        42.8355 
 251   0.0000       1.622242        44.1434 
 252   0.0000       1.640597        44.6429 
 253   0.0000       1.646261        44.7970 
 254   0.0000       1.654411        45.0188 
 255   0.0000       1.664984        45.3065 
 256   0.0000       1.679928        45.7132 
 257   0.0000       1.696222        46.1565 
 258   0.0000       1.698046        46.2062 
 259   0.0000       1.707937        46.4753 
 260   0.0000       1.714340        46.6496 
 261   0.0000       1.718376        46.7594 
 262   0.0000       1.734410        47.1957 
 263   0.0000       1.737526        47.2805 
 264   0.0000       1.740405        47.3588 
 265   0.0000       1.743324        47.4383 
 266   0.0000       1.750112        47.6230 
 267   0.0000       1.757055        47.8119 
 268   0.0000       1.759652        47.8826 
 269   0.0000       1.765881        48.0521 
 270   0.0000       1.770548        48.1791 
 271   0.0000       1.784455        48.5575 
 272   0.0000       1.791922        48.7607 
 273   0.0000       1.799522        48.9675 
 274   0.0000       1.801531        49.0222 
 275   0.0000       1.834291        49.9136 
 276   0.0000       1.837585        50.0032 
 277   0.0000       1.847896        50.2838 
 278   0.0000       1.851674        50.3866 
 279   0.0000       1.854212        50.4557 
 280   0.0000       1.877625        51.0928 
 281   0.0000       1.890550        51.4445 
 282   0.0000       1.903007        51.7834 
 283   0.0000       1.904297        51.8186 
 284   0.0000       1.919468        52.2314 
 285   0.0000       1.939909        52.7876 
 286   0.0000       1.951205        53.0950 
 287   0.0000       1.975224        53.7486 
 288   0.0000       2.026089        55.1327 
 289   0.0000       2.068242        56.2797 
 290   0.0000       2.078697        56.5642 
 291   0.0000       2.092996        56.9533 
 292   0.0000       2.113756        57.5182 
 293   0.0000       2.117609        57.6231 
 294   0.0000       2.137571        58.1663 
 295   0.0000       2.139476        58.2181 
 296   0.0000       2.158570        58.7377 
 297   0.0000       2.180889        59.3450 
 298   0.0000       2.197690        59.8022 
 299   0.0000       2.221950        60.4623 
 300   0.0000       2.237666        60.8900 
 301   0.0000       2.242540        61.0226 
 302   0.0000       2.243261        61.0422 
 303   0.0000       2.259203        61.4760 
 304   0.0000       2.292257        62.3755 
 305   0.0000       2.314258        62.9742 
 306   0.0000       2.376846        64.6773 
 307   0.0000       2.391504        65.0761 
 308   0.0000       2.394739        65.1642 
 309   0.0000       2.423090        65.9356 
 310   0.0000       2.434635        66.2498 
 311   0.0000       2.439229        66.3748 
 312   0.0000       2.459548        66.9277 
 313   0.0000       2.478214        67.4356 
 314   0.0000       2.625820        71.4522 
 315   0.0000       2.640292        71.8460 
 316   0.0000       2.648229        72.0620 
 317   0.0000       2.648958        72.0818 
 318   0.0000       2.661974        72.4360 
 319   0.0000       2.670451        72.6667 
 320   0.0000       2.671884        72.7057 
 321   0.0000       2.689137        73.1751 
 322   0.0000       2.744968        74.6944 
 323   0.0000       2.746627        74.7395 
 324   0.0000       2.758346        75.0584 
 325   0.0000       2.799962        76.1908 
 326   0.0000       2.803679        76.2920 
 327   0.0000       2.806676        76.3735 
 328   0.0000       2.809928        76.4620 
 329   0.0000       2.810565        76.4794 
 330   0.0000       2.819066        76.7107 
 331   0.0000       2.820388        76.7466 
 332   0.0000       2.821865        76.7868 
 333   0.0000       2.841711        77.3269 
 334   0.0000       2.850313        77.5610 
 335   0.0000       2.868975        78.0688 
 336   0.0000       2.906671        79.0945 
 337   0.0000       2.922574        79.5273 
 338   0.0000       2.927244        79.6544 
 339   0.0000       2.932421        79.7952 
 340   0.0000       2.937142        79.9237 
 341   0.0000       2.939077        79.9763 
 342   0.0000       2.950685        80.2922 
 343   0.0000       2.954866        80.4060 
 344   0.0000       2.956993        80.4639 
 345   0.0000       2.980199        81.0953 
 346   0.0000       2.984575        81.2144 
 347   0.0000       2.995513        81.5121 
 348   0.0000       3.020498        82.1919 
 349   0.0000       3.038539        82.6829 
 350   0.0000       3.065815        83.4251 
 351   0.0000       3.069638        83.5291 
 352   0.0000       3.077528        83.7438 
 353   0.0000       3.082881        83.8894 
 354   0.0000       3.085816        83.9693 
 355   0.0000       3.105987        84.5182 
 356   0.0000       3.126750        85.0832 
 357   0.0000       3.130798        85.1933 
 358   0.0000       3.138826        85.4118 
 359   0.0000       3.174786        86.3903 
 360   0.0000       3.181398        86.5702 
 361   0.0000       3.228595        87.8545 
 362   0.0000       3.231191        87.9252 
 363   0.0000       3.264314        88.8265 
 364   0.0000       3.275852        89.1405 
 365   0.0000       3.285484        89.4026 
 366   0.0000       3.291412        89.5639 
 367   0.0000       3.295503        89.6752 
 368   0.0000       3.308963        90.0415 
 369   0.0000       3.318474        90.3003 
 370   0.0000       3.336148        90.7812 
 371   0.0000       3.355821        91.3165 
 372   0.0000       3.362990        91.5116 
 373   0.0000       3.366169        91.5981 
 374   0.0000       3.383585        92.0720 
 375   0.0000       3.402973        92.5996 
 376   0.0000       3.405815        92.6769 
 377   0.0000       3.416260        92.9612 
 378   0.0000       3.501206        95.2727 
 379   0.0000       3.507513        95.4443 
 380   0.0000       3.520507        95.7979 
 381   0.0000       3.556345        96.7731 
 382   0.0000       3.574469        97.2663 
 383   0.0000       3.631792        98.8261 
 384   0.0000       3.640060        99.0511 
 385   0.0000       3.651780        99.3700 
 386   0.0000       3.691117       100.4404 
 387   0.0000       3.716059       101.1191 
 388   0.0000       3.718660       101.1899 
 389   0.0000       3.720603       101.2428 
 390   0.0000       3.760219       102.3208 
 391   0.0000       3.773903       102.6931 
 392   0.0000       3.788838       103.0995 
 393   0.0000       3.841525       104.5332 
 394   0.0000       3.849955       104.7626 
 395   0.0000       3.872101       105.3652 
 396   0.0000       3.917921       106.6121 
 397   0.0000       4.053632       110.3049 
 398   0.0000       4.159320       113.1809 
 399   0.0000       4.190889       114.0399 
 400   0.0000       4.280938       116.4902 
 401   0.0000       4.343796       118.2007 
 402   0.0000       4.358083       118.5895 
 403   0.0000       4.377491       119.1176 
 404   0.0000       4.382863       119.2638 
 405   0.0000       4.442588       120.8890 
 406   0.0000       4.560448       124.0961 
 407   0.0000       4.575783       124.5134 
 408   0.0000       4.612627       125.5159 
 409   0.0000       4.631751       126.0363 
 410   0.0000       4.675145       127.2172 
 411   0.0000       4.709893       128.1627 
 412   0.0000       4.723410       128.5305 
 413   0.0000       4.862986       132.3286 
 414   0.0000       5.041132       137.1762 
 415   0.0000       5.072500       138.0297 
 416   0.0000       5.072899       138.0406 
 417   0.0000       5.073312       138.0518 
 418   0.0000       5.074059       138.0722 
 419   0.0000       5.074344       138.0799 
 420   0.0000       5.074635       138.0878 
 421   0.0000       5.075453       138.1101 
 422   0.0000       5.076596       138.1412 
 423   0.0000       5.078140       138.1832 
 424   0.0000       5.078774       138.2005 
 425   0.0000       5.081615       138.2778 
 426   0.0000       5.088239       138.4580 
 427   0.0000       5.327362       144.9649 
 428   0.0000       5.488146       149.3400 
 429   0.0000       5.492466       149.4576 
 430   0.0000       5.495667       149.5447 
 431   0.0000       5.496721       149.5734 
 432   0.0000       5.496948       149.5796 
 433   0.0000       5.498604       149.6246 
 434   0.0000       5.498848       149.6313 
 435   0.0000       5.500327       149.6715 
 436   0.0000       5.501550       149.7048 
 437   0.0000       5.502635       149.7343 
 438   0.0000       5.536990       150.6692 
 439   0.0000       5.538814       150.7188 
 440   0.0000       6.200951       168.7364 
 441   0.0000       6.217696       169.1921 
 442   0.0000       6.219384       169.2380 
 443   0.0000       6.243556       169.8958 
 444   0.0000       6.257663       170.2797 
 445   0.0000       6.259830       170.3386 
 446   0.0000       6.272548       170.6847 
 447   0.0000       6.295660       171.3136 
 448   0.0000       6.297217       171.3560 
 449   0.0000       6.306406       171.6060 
 450   0.0000       6.333983       172.3564 
 451   0.0000       6.338896       172.4901 
 452   0.0000       6.365411       173.2116 
 453   0.0000       6.374919       173.4704 
 454   0.0000       6.383804       173.7121 
 455   0.0000       6.384154       173.7217 
 456   0.0000       6.388023       173.8269 
 457   0.0000       6.394084       173.9919 
 458   0.0000       6.402665       174.2254 
 459   0.0000       6.407675       174.3617 
 460   0.0000       6.410799       174.4467 
 461   0.0000       6.423881       174.8027 
 462   0.0000       6.424930       174.8312 
 463   0.0000       6.437529       175.1741 
 464   0.0000       6.617908       180.0824 
 465   0.0000       6.633883       180.5171 
 466   0.0000       6.635913       180.5724 
 467   0.0000       6.638000       180.6292 
 468   0.0000       6.638753       180.6497 
 469   0.0000       6.797125       184.9592 
 470   0.0000       6.810296       185.3176 
 471   0.0000       6.813526       185.4055 
 472   0.0000       6.823915       185.6882 
 473   0.0000       6.824488       185.7038 
 474   0.0000       6.827907       185.7968 
 475   0.0000       6.831836       185.9037 
 476   0.0000       6.836329       186.0260 
 477   0.0000       6.839425       186.1102 
 478   0.0000       6.840117       186.1290 
 479   0.0000       6.891834       187.5363 
 480   0.0000       6.895830       187.6451 
 481   0.0000       7.131905       194.0690 
 482   0.0000       7.172877       195.1839 
 483   0.0000       7.175290       195.2496 
 484   0.0000       7.180392       195.3884 
 485   0.0000       7.181649       195.4226 
 486   0.0000       7.193306       195.7398 
 487   0.0000       7.404287       201.4809 
 488   0.0000      22.891085       622.8981 
 489   0.0000      22.915781       623.5701 
 490   0.0000      22.929890       623.9540 
 491   0.0000      22.955475       624.6502 
 492   0.0000      22.998056       625.8089 
 493   0.0000      25.017458       680.7596 
 494   0.0000      32.240854       877.3183 
 495   0.0000      44.059755      1198.9269 
 496   0.0000      44.140553      1201.1255 
 497   0.0000      44.141194      1201.1429 
 498   0.0000      44.165612      1201.8074 
 499   0.0000      44.201283      1202.7781 
 500   0.0000      44.244231      1203.9467 
 501   0.0000      84.444132      2297.8416 

                 SPIN DOWN ORBITALS
  NO   OCC          E(Eh)            E(eV) 
   0   1.0000     -19.233280      -523.3642 
   1   1.0000     -19.231373      -523.3123 
   2   1.0000     -19.229831      -523.2703 
   3   1.0000     -19.229525      -523.2620 
   4   1.0000     -19.228194      -523.2258 
   5   1.0000     -19.224784      -523.1330 
   6   1.0000     -14.449572      -393.1928 
   7   1.0000     -10.305611      -280.4299 
   8   1.0000     -10.305026      -280.4140 
   9   1.0000     -10.303721      -280.3785 
  10   1.0000     -10.303257      -280.3659 
  11   1.0000     -10.300706      -280.2965 
  12   1.0000      -2.576533       -70.1110 
  13   1.0000      -1.579583       -42.9826 
  14   1.0000      -1.577723       -42.9320 
  15   1.0000      -1.574067       -42.8325 
  16   1.0000      -1.186747       -32.2930 
  17   1.0000      -1.170093       -31.8398 
  18   1.0000      -1.168892       -31.8072 
  19   1.0000      -1.168380       -31.7932 
  20   1.0000      -1.167355       -31.7653 
  21   1.0000      -1.164657       -31.6919 
  22   1.0000      -0.670846       -18.2546 
  23   1.0000      -0.597413       -16.2564 
  24   1.0000      -0.584130       -15.8950 
  25   1.0000      -0.582215       -15.8429 
  26   1.0000      -0.580733       -15.8025 
  27   1.0000      -0.579588       -15.7714 
  28   1.0000      -0.509488       -13.8639 
  29   1.0000      -0.494459       -13.4549 
  30   1.0000      -0.493275       -13.4227 
  31   1.0000      -0.490554       -13.3487 
  32   1.0000      -0.490182       -13.3385 
  33   1.0000      -0.487656       -13.2698 
  34   1.0000      -0.486068       -13.2266 
  35   1.0000      -0.483202       -13.1486 
  36   1.0000      -0.481838       -13.1115 
  37   1.0000      -0.480579       -13.0772 
  38   1.0000      -0.478803       -13.0289 
  39   1.0000      -0.478274       -13.0145 
  40   1.0000      -0.475576       -12.9411 
  41   1.0000      -0.468380       -12.7453 
  42   1.0000      -0.456207       -12.4140 
  43   1.0000      -0.438629       -11.9357 
  44   1.0000      -0.423742       -11.5306 
  45   1.0000      -0.420301       -11.4370 
  46   1.0000      -0.243810        -6.6344 
  47   1.0000      -0.242859        -6.6085 
  48   1.0000      -0.228778        -6.2254 
  49   0.0000      -0.110268        -3.0006 
  50   0.0000      -0.106870        -2.9081 
  51   0.0000      -0.073244        -1.9931 
  52   0.0000      -0.060515        -1.6467 
  53   0.0000      -0.057823        -1.5735 
  54   0.0000      -0.043801        -1.1919 
  55   0.0000      -0.023401        -0.6368 
  56   0.0000      -0.019332        -0.5260 
  57   0.0000      -0.005620        -0.1529 
  58   0.0000      -0.002008        -0.0546 
  59   0.0000       0.005375         0.1463 
  60   0.0000       0.006410         0.1744 
  61   0.0000       0.009422         0.2564 
  62   0.0000       0.018376         0.5000 
  63   0.0000       0.021122         0.5748 
  64   0.0000       0.021733         0.5914 
  65   0.0000       0.022180         0.6035 
  66   0.0000       0.043390         1.1807 
  67   0.0000       0.055189         1.5018 
  68   0.0000       0.056611         1.5405 
  69   0.0000       0.057719         1.5706 
  70   0.0000       0.058600         1.5946 
  71   0.0000       0.066293         1.8039 
  72   0.0000       0.077342         2.1046 
  73   0.0000       0.077533         2.1098 
  74   0.0000       0.081578         2.2198 
  75   0.0000       0.091088         2.4786 
  76   0.0000       0.093202         2.5361 
  77   0.0000       0.093696         2.5496 
  78   0.0000       0.097219         2.6455 
  79   0.0000       0.114107         3.1050 
  80   0.0000       0.127941         3.4814 
  81   0.0000       0.132530         3.6063 
  82   0.0000       0.133167         3.6237 
  83   0.0000       0.135613         3.6902 
  84   0.0000       0.136568         3.7162 
  85   0.0000       0.142631         3.8812 
  86   0.0000       0.143524         3.9055 
  87   0.0000       0.167167         4.5488 
  88   0.0000       0.180046         4.8993 
  89   0.0000       0.190087         5.1725 
  90   0.0000       0.195014         5.3066 
  91   0.0000       0.196207         5.3391 
  92   0.0000       0.209394         5.6979 
  93   0.0000       0.215245         5.8571 
  94   0.0000       0.218454         5.9444 
  95   0.0000       0.223550         6.0831 
  96   0.0000       0.227767         6.1979 
  97   0.0000       0.237061         6.4508 
  98   0.0000       0.238782         6.4976 
  99   0.0000       0.246916         6.7189 
 100   0.0000       0.248650         6.7661 
 101   0.0000       0.250102         6.8056 
 102   0.0000       0.255800         6.9607 
 103   0.0000       0.263724         7.1763 
 104   0.0000       0.271151         7.3784 
 105   0.0000       0.272670         7.4197 
 106   0.0000       0.274781         7.4772 
 107   0.0000       0.276846         7.5334 
 108   0.0000       0.288847         7.8599 
 109   0.0000       0.289981         7.8908 
 110   0.0000       0.292560         7.9610 
 111   0.0000       0.294943         8.0258 
 112   0.0000       0.303479         8.2581 
 113   0.0000       0.314966         8.5707 
 114   0.0000       0.320450         8.7199 
 115   0.0000       0.337969         9.1966 
 116   0.0000       0.338748         9.2178 
 117   0.0000       0.338839         9.2203 
 118   0.0000       0.339919         9.2497 
 119   0.0000       0.340505         9.2656 
 120   0.0000       0.343512         9.3474 
 121   0.0000       0.344053         9.3621 
 122   0.0000       0.345760         9.4086 
 123   0.0000       0.350113         9.5271 
 124   0.0000       0.352336         9.5876 
 125   0.0000       0.374245        10.1837 
 126   0.0000       0.378448        10.2981 
 127   0.0000       0.383312        10.4304 
 128   0.0000       0.405629        11.0377 
 129   0.0000       0.425284        11.5726 
 130   0.0000       0.428202        11.6520 
 131   0.0000       0.430423        11.7124 
 132   0.0000       0.435127        11.8404 
 133   0.0000       0.448841        12.2136 
 134   0.0000       0.455228        12.3874 
 135   0.0000       0.471520        12.8307 
 136   0.0000       0.473634        12.8882 
 137   0.0000       0.478029        13.0078 
 138   0.0000       0.485632        13.2147 
 139   0.0000       0.487392        13.2626 
 140   0.0000       0.493183        13.4202 
 141   0.0000       0.494443        13.4545 
 142   0.0000       0.498240        13.5578 
 143   0.0000       0.501990        13.6598 
 144   0.0000       0.510714        13.8972 
 145   0.0000       0.512560        13.9475 
 146   0.0000       0.520812        14.1720 
 147   0.0000       0.529442        14.4068 
 148   0.0000       0.536173        14.5900 
 149   0.0000       0.537177        14.6173 
 150   0.0000       0.541531        14.7358 
 151   0.0000       0.542359        14.7583 
 152   0.0000       0.547222        14.8907 
 153   0.0000       0.547934        14.9100 
 154   0.0000       0.552181        15.0256 
 155   0.0000       0.553968        15.0742 
 156   0.0000       0.556609        15.1461 
 157   0.0000       0.559143        15.2150 
 158   0.0000       0.567887        15.4530 
 159   0.0000       0.579977        15.7820 
 160   0.0000       0.586598        15.9622 
 161   0.0000       0.590141        16.0585 
 162   0.0000       0.619007        16.8440 
 163   0.0000       0.623568        16.9682 
 164   0.0000       0.634391        17.2627 
 165   0.0000       0.636721        17.3261 
 166   0.0000       0.642973        17.4962 
 167   0.0000       0.647082        17.6080 
 168   0.0000       0.655159        17.8278 
 169   0.0000       0.665353        18.1052 
 170   0.0000       0.674787        18.3619 
 171   0.0000       0.678562        18.4646 
 172   0.0000       0.681899        18.5554 
 173   0.0000       0.690717        18.7954 
 174   0.0000       0.696945        18.9648 
 175   0.0000       0.705387        19.1946 
 176   0.0000       0.708775        19.2867 
 177   0.0000       0.711130        19.3508 
 178   0.0000       0.719178        19.5698 
 179   0.0000       0.721719        19.6390 
 180   0.0000       0.743369        20.2281 
 181   0.0000       0.744374        20.2554 
 182   0.0000       0.757664        20.6171 
 183   0.0000       0.763898        20.7867 
 184   0.0000       0.768516        20.9124 
 185   0.0000       0.787403        21.4263 
 186   0.0000       0.792275        21.5589 
 187   0.0000       0.796948        21.6861 
 188   0.0000       0.801369        21.8064 
 189   0.0000       0.819584        22.3020 
 190   0.0000       0.823718        22.4145 
 191   0.0000       0.835173        22.7262 
 192   0.0000       0.838179        22.8080 
 193   0.0000       0.847609        23.0646 
 194   0.0000       0.852204        23.1897 
 195   0.0000       0.856555        23.3081 
 196   0.0000       0.859053        23.3760 
 197   0.0000       0.860872        23.4255 
 198   0.0000       0.861303        23.4372 
 199   0.0000       0.867054        23.5938 
 200   0.0000       0.868090        23.6219 
 201   0.0000       0.879441        23.9308 
 202   0.0000       0.883823        24.0501 
 203   0.0000       0.894283        24.3347 
 204   0.0000       0.903201        24.5773 
 205   0.0000       0.905558        24.6415 
 206   0.0000       0.914392        24.8819 
 207   0.0000       0.914602        24.8876 
 208   0.0000       0.918091        24.9825 
 209   0.0000       0.922729        25.1087 
 210   0.0000       0.928429        25.2638 
 211   0.0000       0.935353        25.4522 
 212   0.0000       0.942099        25.6358 
 213   0.0000       0.952798        25.9269 
 214   0.0000       0.955951        26.0128 
 215   0.0000       0.959540        26.1104 
 216   0.0000       0.975074        26.5331 
 217   0.0000       0.984249        26.7828 
 218   0.0000       0.998178        27.1618 
 219   0.0000       1.014625        27.6094 
 220   0.0000       1.030385        28.0382 
 221   0.0000       1.041755        28.3476 
 222   0.0000       1.049528        28.5591 
 223   0.0000       1.072087        29.1730 
 224   0.0000       1.075551        29.2672 
 225   0.0000       1.100051        29.9339 
 226   0.0000       1.105712        30.0880 
 227   0.0000       1.128771        30.7154 
 228   0.0000       1.133013        30.8309 
 229   0.0000       1.147714        31.2309 
 230   0.0000       1.154037        31.4029 
 231   0.0000       1.181287        32.1445 
 232   0.0000       1.201685        32.6995 
 233   0.0000       1.219725        33.1904 
 234   0.0000       1.240750        33.7625 
 235   0.0000       1.274640        34.6847 
 236   0.0000       1.278770        34.7971 
 237   0.0000       1.281409        34.8689 
 238   0.0000       1.298145        35.3243 
 239   0.0000       1.309611        35.6363 
 240   0.0000       1.311374        35.6843 
 241   0.0000       1.361123        37.0380 
 242   0.0000       1.373239        37.3677 
 243   0.0000       1.393875        37.9293 
 244   0.0000       1.400962        38.1221 
 245   0.0000       1.411226        38.4014 
 246   0.0000       1.428349        38.8674 
 247   0.0000       1.545079        42.0437 
 248   0.0000       1.550935        42.2031 
 249   0.0000       1.554184        42.2915 
 250   0.0000       1.579041        42.9679 
 251   0.0000       1.622251        44.1437 
 252   0.0000       1.642044        44.6823 
 253   0.0000       1.646667        44.8081 
 254   0.0000       1.655854        45.0581 
 255   0.0000       1.669560        45.4310 
 256   0.0000       1.688730        45.9527 
 257   0.0000       1.696306        46.1588 
 258   0.0000       1.698627        46.2220 
 259   0.0000       1.710951        46.5574 
 260   0.0000       1.714358        46.6501 
 261   0.0000       1.718528        46.7635 
 262   0.0000       1.734511        47.1984 
 263   0.0000       1.737570        47.2817 
 264   0.0000       1.740513        47.3618 
 265   0.0000       1.744957        47.4827 
 266   0.0000       1.751395        47.6579 
 267   0.0000       1.761399        47.9301 
 268   0.0000       1.763254        47.9806 
 269   0.0000       1.766537        48.0699 
 270   0.0000       1.773878        48.2697 
 271   0.0000       1.788806        48.6759 
 272   0.0000       1.792576        48.7785 
 273   0.0000       1.799621        48.9702 
 274   0.0000       1.801643        49.0252 
 275   0.0000       1.837661        50.0053 
 276   0.0000       1.840541        50.0837 
 277   0.0000       1.850747        50.3614 
 278   0.0000       1.854572        50.4655 
 279   0.0000       1.859188        50.5911 
 280   0.0000       1.883361        51.2489 
 281   0.0000       1.892327        51.4928 
 282   0.0000       1.903110        51.7863 
 283   0.0000       1.904377        51.8207 
 284   0.0000       1.920825        52.2683 
 285   0.0000       1.942927        52.8697 
 286   0.0000       1.951208        53.0951 
 287   0.0000       1.977237        53.8034 
 288   0.0000       2.029239        55.2184 
 289   0.0000       2.073176        56.4140 
 290   0.0000       2.081895        56.6512 
 291   0.0000       2.093025        56.9541 
 292   0.0000       2.116483        57.5924 
 293   0.0000       2.118734        57.6537 
 294   0.0000       2.138494        58.1914 
 295   0.0000       2.141789        58.2811 
 296   0.0000       2.158899        58.7466 
 297   0.0000       2.183165        59.4069 
 298   0.0000       2.199640        59.8552 
 299   0.0000       2.224160        60.5225 
 300   0.0000       2.240289        60.9614 
 301   0.0000       2.243229        61.0414 
 302   0.0000       2.256660        61.4069 
 303   0.0000       2.261770        61.5459 
 304   0.0000       2.296077        62.4794 
 305   0.0000       2.322505        63.1986 
 306   0.0000       2.383146        64.8487 
 307   0.0000       2.394778        65.1652 
 308   0.0000       2.417310        65.7783 
 309   0.0000       2.423724        65.9529 
 310   0.0000       2.438473        66.3542 
 311   0.0000       2.446462        66.5716 
 312   0.0000       2.465638        67.0934 
 313   0.0000       2.479195        67.4623 
 314   0.0000       2.631977        71.6197 
 315   0.0000       2.640447        71.8502 
 316   0.0000       2.648741        72.0759 
 317   0.0000       2.650011        72.1105 
 318   0.0000       2.662965        72.4630 
 319   0.0000       2.670631        72.6716 
 320   0.0000       2.672283        72.7165 
 321   0.0000       2.691408        73.2369 
 322   0.0000       2.745276        74.7028 
 323   0.0000       2.747258        74.7567 
[...]
     20      -0.047247  -0.043885   0.019358  -0.041247   0.021610  -0.276736
     21       0.069183  -0.041328  -0.062134   0.010039   0.141839   0.021964
     22       0.192836  -0.198713   0.000797  -0.008726   0.001039  -0.024796
     23      -0.576800   0.304362  -0.003136  -0.020495   0.022011  -0.006853
     24      -0.041524   0.041357   0.288289  -0.336465   0.221986   0.364385
     25       0.109484   0.167031  -0.097380   0.045426   0.080857  -0.016936
     26       0.094108  -0.000261   0.337203  -0.041529  -0.484902   0.021293
     27       0.023436  -0.013718  -0.134954  -0.014387  -0.189326  -0.043574
     28      -0.057208  -0.408144   0.004684  -0.348802   0.062721  -0.249663
     29      -0.052339  -0.069937  -0.017810  -0.124799   0.024702  -0.099280
     30      -0.032603   0.017836   0.358311  -0.349319   0.102521   0.373491
     31      -0.048301  -0.080584   0.003882   0.022762  -0.051640  -0.038578
     32      -0.046091   0.003529  -0.081838  -0.054063   0.218101   0.064200
     33      -0.016755  -0.024701   0.058506  -0.022814   0.086772  -0.002400
     34      -0.058174  -0.401036  -0.009464  -0.373386   0.052265  -0.276053
     35       0.019618  -0.078330   0.006423  -0.029107   0.003234  -0.018686
     36       0.048876  -0.020032  -0.002526   0.000151   0.015279   0.005161
     37      -0.106970   0.087018   0.001207  -0.012000   0.002464  -0.009606
     38      -0.476423   0.207100   0.002789  -0.016308   0.009863  -0.015702
                 24         25         26         27         28         29    
      0       0.020939   0.013736   0.148041   0.079987   0.020297   0.001175
      1       0.122955  -0.076610  -0.011855  -0.003064   0.044918   0.014835
      2      -0.083999  -0.190491   0.016094   0.003781  -0.133729  -0.050713
      3      -0.095948   0.094523  -0.008547   0.014530  -0.004029   0.011268
      4      -0.018563  -0.016915  -0.144897  -0.019073  -0.008393   0.138797
      5       0.019407  -0.014526  -0.042539   0.093669   0.176228  -0.016345
      6      -0.036253  -0.059386  -0.488219  -0.244725  -0.057467  -0.007399
      7       0.028570  -0.202574   0.039059   0.017220  -0.076525  -0.040766
      8       0.304622   0.433223  -0.053450  -0.007577   0.416000   0.197266
      9      -0.077788   0.082938   0.022555   0.044745   0.039370  -0.030742
     10       0.067430   0.016122   0.467038   0.067864   0.024831  -0.405452
     11      -0.071535   0.057950   0.137037  -0.310031  -0.519791   0.055385
     12       0.006297  -0.002189   0.003584  -0.037991  -0.002613   0.003118
     13       0.042457  -0.001329  -0.001272   0.001642  -0.007127   0.004989
     14      -0.088758   0.017185   0.000469  -0.003929   0.016982  -0.002335
     15      -0.055248   0.023535  -0.060236   0.771099   0.010034  -0.023492
     16      -0.247763  -0.146421  -0.000142  -0.007002   0.113067   0.663051
     17       0.430849  -0.313734  -0.008351   0.087984   0.007884   0.135150
     18      -0.055726   0.036841   0.019052  -0.244809  -0.000920   0.006651
     19      -0.006368   0.154916   0.000413   0.001552  -0.034010  -0.220399
     20       0.501641  -0.264350   0.000774  -0.028745  -0.024932  -0.044040
     21       0.000927  -0.043997   0.061359  -0.007733   0.010374   0.003227
     22      -0.179320  -0.347077  -0.003373  -0.001614   0.005317   0.034432
     23      -0.057724   0.256347   0.007617  -0.001706   0.004050  -0.037313
     24       0.123597  -0.084853  -0.022828  -0.036822   0.075077  -0.039332
     25       0.057786   0.034495  -0.457104  -0.117089   0.027296  -0.403626
     26      -0.098706   0.009232  -0.135315   0.317344  -0.523900   0.013425
     27       0.040000   0.051604   0.441738  -0.156504  -0.048902   0.048098
     28      -0.008541   0.256680  -0.031327   0.016687  -0.050077   0.035416
     29      -0.457781  -0.351511   0.050279  -0.043854   0.378800  -0.251116
     30       0.098764  -0.093245   0.003392   0.036871  -0.033083   0.011139
     31      -0.036071  -0.003886   0.141726   0.032541  -0.008020   0.138972
     32       0.058578  -0.022091   0.041335  -0.090257   0.175663  -0.005069
     33      -0.019320  -0.000785  -0.132620   0.057272   0.016364  -0.014076
     34      -0.091072   0.207965   0.010506  -0.003306   0.012363  -0.003403
     35       0.150931   0.164563  -0.015005   0.014564  -0.129965   0.072177
     36       0.016993  -0.009811  -0.024207   0.007118  -0.005640   0.002010
     37       0.008477   0.077666   0.001529  -0.000324   0.002252  -0.015218
     38      -0.144437   0.123161  -0.002785  -0.000891   0.012286  -0.022035
                 30         31         32         33         34         35    
      0      -0.186237  -0.017642   0.013975  -0.001125   0.008147   0.023045
      1       0.017624  -0.055039   0.025433  -0.019380   0.147162   0.414892
      2      -0.020265   0.055858  -0.143098  -0.003997   0.032951   0.092386
      3       0.044791   0.008994   0.005895   0.036882  -0.055010  -0.000296
      4      -0.018896   0.151972   0.047258  -0.002992   0.003784  -0.000609
      5       0.015888   0.055210  -0.106196   0.003511  -0.003112  -0.000168
      6       0.600984   0.049964  -0.046177   0.001608  -0.010924  -0.029969
      7      -0.045969   0.005311  -0.108560   0.024169  -0.199753  -0.547607
      8       0.068785  -0.237646   0.459418   0.004547  -0.045623  -0.126176
      9       0.055194  -0.021123  -0.035888  -0.042842   0.075081   0.000282
     10       0.054815  -0.492446  -0.154964   0.004808  -0.005554   0.000284
     11      -0.042645  -0.180710   0.351969  -0.006363   0.004724   0.000282
     12      -0.145819  -0.002420   0.017108  -0.000296   0.000156  -0.000057
     13       0.003150   0.143209   0.057251  -0.001912   0.000803  -0.001509
     14      -0.014860   0.055772  -0.152083   0.002038  -0.001040  -0.000330
     15       0.238469  -0.005839  -0.005441  -0.005917  -0.085171   0.001637
     16       0.005919  -0.498952  -0.164500  -0.007668  -0.151709   0.003950
     17       0.028058  -0.110975   0.035020   0.051718   0.729754  -0.014630
     18      -0.067956   0.002637  -0.008627   0.006277   0.062196  -0.001333
     19      -0.001685   0.151415   0.034493   0.010191   0.110457  -0.003236
     20      -0.009354   0.025927   0.079037  -0.054261  -0.533224   0.011131
     21       0.041340  -0.005461  -0.000510  -0.068966   0.002957   0.000672
     22      -0.000550  -0.101276  -0.004467   0.244420  -0.012454   0.003351
     23       0.003911   0.025885   0.022436   0.704982  -0.030927  -0.003600
     24       0.042462  -0.015050  -0.060745   0.044041  -0.076098   0.001276
     25      -0.006274  -0.500479  -0.155030  -0.001634   0.006382   0.000199
     26       0.046416  -0.175257   0.354551   0.002937  -0.011140   0.000416
     27       0.667757   0.027266  -0.053589  -0.002506   0.010611  -0.032522
     28      -0.043883  -0.045879  -0.082218  -0.032111   0.182861  -0.559666
     29       0.063048   0.004376   0.566301   0.000040   0.023135  -0.072155
     30       0.048035   0.007927   0.025162  -0.037341   0.055655  -0.000995
     31      -0.006108   0.154042   0.046457   0.002782  -0.004893  -0.000550
     32      -0.004126   0.054155  -0.105559  -0.004283   0.008497  -0.000285
     33      -0.204077  -0.011534   0.015347   0.001549  -0.007735   0.024297
     34       0.017152  -0.038202   0.011314   0.025579  -0.133896   0.422325
     35      -0.019116  -0.004487  -0.172180   0.002960  -0.017700   0.056981
     36      -0.001159   0.002472  -0.002366   0.060127  -0.001838  -0.000452
     37       0.000078   0.016166  -0.004912  -0.209368   0.009430   0.001236
     38      -0.000210  -0.018095   0.013596  -0.613053   0.019750   0.004438
                 36         37         38    
      0       0.000808   0.015552  -0.013837
      1       0.002288   0.279970  -0.248657
      2       0.000586   0.062172  -0.055104
      3      -0.420047   0.294051   0.283683
      4       0.028905  -0.020166  -0.019543
      5      -0.025568   0.017746   0.017320
      6      -0.001086  -0.021289   0.019495
      7      -0.003141  -0.386972   0.352601
      8      -0.000801  -0.087994   0.079058
      9       0.558059  -0.405731  -0.400894
     10      -0.038488   0.027695   0.027635
     11       0.033868  -0.023558  -0.024311
     12       0.000222  -0.000048   0.000090
     13      -0.000025  -0.000158   0.000436
     14       0.000029   0.000889  -0.000941
     15      -0.000197   0.014113  -0.030401
     16       0.000143   0.024961  -0.054227
     17       0.000133  -0.123126   0.260318
     18       0.000382  -0.010260   0.021386
     19      -0.000050  -0.018301   0.038251
     20      -0.000046   0.088421  -0.183229
     21       0.000359  -0.000102   0.008055
     22      -0.000166  -0.002421  -0.021703
     23      -0.000536  -0.005960  -0.080513
     24       0.561349   0.389567   0.395526
     25      -0.049321  -0.034526  -0.034569
     26       0.083454   0.059039   0.058785
     27      -0.000789   0.023017  -0.020990
     28       0.004954   0.396312  -0.362843
     29       0.000486   0.051435  -0.047929
     30      -0.422071  -0.282071  -0.279708
     31       0.037043   0.024807   0.024507
     32      -0.062688  -0.042064  -0.041486
     33       0.000509  -0.016454   0.014680
     34      -0.003595  -0.285897   0.255327
     35      -0.000393  -0.038570   0.034511
     36      -0.000047  -0.000201  -0.005818
     37       0.000159   0.002030   0.020106
     38       0.000465   0.005426   0.059439


-----------
IR SPECTRUM
-----------

 Mode   freq       eps      Int      T**2         TX        TY        TZ
       cm**-1   L/(mol*cm) km/mol    a.u.
----------------------------------------------------------------------------
  6:     35.54   0.000034    0.17  0.000300  ( 0.017305 -0.000575  0.000567)
  7:     55.03   0.000001    0.01  0.000006  (-0.000405  0.000373  0.002467)
  8:     57.24   0.000022    0.11  0.000121  ( 0.000241  0.010516  0.003281)
  9:     67.43   0.000027    0.14  0.000125  ( 0.011103 -0.001156  0.000689)
 10:     78.55   0.000057    0.29  0.000225  (-0.002608 -0.010995  0.009847)
 11:     79.31   0.000009    0.04  0.000035  (-0.005657  0.001519 -0.000560)
 12:     81.63   0.000205    1.03  0.000783  ( 0.002625 -0.018620 -0.020710)
 13:     84.19   0.000206    1.04  0.000763  (-0.027307 -0.000048 -0.004202)
 14:     89.46   0.000172    0.87  0.000600  (-0.001502 -0.021098  0.012360)
 15:    182.76   0.000210    1.06  0.000358  ( 0.018665 -0.001440  0.002827)
 16:    247.09   0.000167    0.84  0.000211  ( 0.001808 -0.006553 -0.012829)
 17:    344.91   0.000027    0.14  0.000025  ( 0.002905  0.002580  0.003095)
 18:    345.98   0.006968   35.22  0.006285  ( 0.003488 -0.048376 -0.062711)
 19:    354.91   0.010597   53.55  0.009318  (-0.009876 -0.095004  0.013938)
 20:    360.74   0.007059   35.67  0.006106  ( 0.077372 -0.007434  0.008030)
 21:    381.93   0.000472    2.39  0.000386  ( 0.001507 -0.006635 -0.018432)
 22:    387.11   0.003907   19.75  0.003150  ( 0.055092 -0.004171  0.009867)
 23:    389.63   0.001011    5.11  0.000809  ( 0.014266  0.000091 -0.024613)
 24:    407.68   0.003692   18.66  0.002826  (-0.004157 -0.020022  0.049070)
 25:    415.18   0.000077    0.39  0.000058  (-0.000711 -0.006572  0.003717)
 26:    480.86   0.000020    0.10  0.000013  (-0.003433  0.000980  0.000627)
 27:    497.81   0.000434    2.19  0.000272  ( 0.016326 -0.001549  0.001779)
 28:    514.80   0.000763    3.85  0.000462  ( 0.002288  0.001652 -0.021314)
 29:    517.99   0.000184    0.93  0.000111  (-0.002429 -0.010244 -0.000411)
 30:    580.46   0.012262   61.96  0.006592  ( 0.080771 -0.001835  0.008039)
 31:    592.64   0.013375   67.59  0.007043  ( 0.000517 -0.080383 -0.024105)
 32:    600.54   0.015729   79.49  0.008173  (-0.009593 -0.031136  0.084332)
 33:   1786.16   0.205466  1038.34  0.035897  (-0.020775 -0.009342  0.188092)
 34:   2049.38   0.174292  880.80  0.026540  (-0.019280 -0.033937  0.158166)
 35:   2056.69   0.418187  2113.35  0.063452  (-0.013492 -0.247577 -0.044445)
 36:   2071.92   0.398666  2014.70  0.060045  ( 0.243008 -0.018502  0.025504)
 37:   2090.69   0.001907    9.64  0.000285  (-0.001111  0.003583 -0.016448)
 38:   2167.05   0.017456   88.21  0.002514  (-0.005733 -0.006971  0.049317)

* The epsilon (eps) is given for a Dirac delta lineshape.
** The dipole moment derivative (T) already includes vibrational overlap.

The first frequency considered to be a vibration is 6
The total number of vibrations considered is 33


--------------------------
THERMOCHEMISTRY AT 298.15K
--------------------------

Temperature         ... 298.15 K
Pressure            ... 1.00 atm
Total Mass          ... 266.00 AMU

Throughout the following assumptions are being made:
  (1) The electronic state is orbitally nondegenerate
      but the spin degeneracy is treated
  (2) There are no thermally accessible electronically excited states
  (3) Hindered rotations indicated by low frequency modes are not
      treated as such but are treated as vibrations and this may
      cause some error
  (4) All equations used are the standard statistical mechanics
      equations for an ideal gas
  (5) All vibrations are strictly harmonic

freq.      35.54  E(vib)   ...       0.54 
freq.      55.03  E(vib)   ...       0.52 
freq.      57.24  E(vib)   ...       0.51 
freq.      67.43  E(vib)   ...       0.50 
freq.      78.55  E(vib)   ...       0.49 
freq.      79.31  E(vib)   ...       0.49 
freq.      81.63  E(vib)   ...       0.48 
freq.      84.19  E(vib)   ...       0.48 
freq.      89.46  E(vib)   ...       0.47 
freq.     182.76  E(vib)   ...       0.37 
freq.     247.09  E(vib)   ...       0.31 
freq.     344.91  E(vib)   ...       0.23 
freq.     345.98  E(vib)   ...       0.23 
freq.     354.91  E(vib)   ...       0.22 
freq.     360.74  E(vib)   ...       0.22 
freq.     381.93  E(vib)   ...       0.21 
freq.     387.11  E(vib)   ...       0.20 
freq.     389.63  E(vib)   ...       0.20 
freq.     407.68  E(vib)   ...       0.19 
freq.     415.18  E(vib)   ...       0.19 
freq.     480.86  E(vib)   ...       0.15 
freq.     497.81  E(vib)   ...       0.14 
freq.     514.80  E(vib)   ...       0.13 
freq.     517.99  E(vib)   ...       0.13 
freq.     580.46  E(vib)   ...       0.11 
freq.     592.64  E(vib)   ...       0.10 
freq.     600.54  E(vib)   ...       0.10 
freq.    1786.16  E(vib)   ...       0.00 
freq.    2049.38  E(vib)   ...       0.00 
freq.    2056.69  E(vib)   ...       0.00 
freq.    2071.92  E(vib)   ...       0.00 
freq.    2090.69  E(vib)   ...       0.00 
freq.    2167.05  E(vib)   ...       0.00 

------------
INNER ENERGY
------------

The inner energy is: U= E(el) + E(ZPE) + E(vib) + E(rot) + E(trans)
    E(el)   - is the total energy from the electronic structure calculation
              = E(kin-el) + E(nuc-el) + E(el-el) + E(nuc-nuc)
    E(ZPE)  - the the zero temperature vibrational energy from the frequency calculation
    E(vib)  - the the finite temperature correction to E(ZPE) due to population
              of excited vibrational states
    E(rot)  - is the rotational thermal energy
    E(trans)- is the translational thermal energy

Summary of contributions to the inner energy U:
Electronic energy                ...   -764.85842121 Eh
Zero point energy                ...      0.04659607 Eh      29.24 kcal/mol
Thermal vibrational correction   ...      0.01262135 Eh       7.92 kcal/mol
Thermal rotational correction    ...      0.00141627 Eh       0.89 kcal/mol
Thermal translational correction ...      0.00141627 Eh       0.89 kcal/mol
-----------------------------------------------------------------------
Total thermal energy                   -764.79637126 Eh


Summary of corrections to the electronic energy:
(perhaps to be used in another calculation)
Total thermal correction                  0.01545389 Eh       9.70 kcal/mol
Non-thermal (ZPE) correction              0.04659607 Eh      29.24 kcal/mol
-----------------------------------------------------------------------
Total correction                          0.06204996 Eh      38.94 kcal/mol


--------
ENTHALPY
--------

The enthalpy is H = U + kB*T
                kB is Boltzmann's constant
Total free energy                 ...   -764.79637126 Eh 
Thermal Enthalpy correction       ...      0.00094421 Eh       0.59 kcal/mol
-----------------------------------------------------------------------
Total Enthalpy                    ...   -764.79542705 Eh


Note: Only C1 symmetry has been detected, increase convergence thresholds 
      if your molecule has a higher symmetry. Symmetry factor of 1.0 is   
      used for the rotational entropy correction. 
 

Note: Rotational entropy computed according to Herzberg 
Infrared and Raman Spectra, Chapter V,1, Van Nostrand Reinhold, 1945 
Point Group:  C1, Symmetry Number:   1  
Rotational constants in cm-1:     0.020070     0.019483     0.018818 

Vibrational entropy computed according to the QRRHO of S. Grimme
Chem.Eur.J. 2012 18 9955


-------
ENTROPY
-------

The entropy contributions are T*S = T*(S(el)+S(vib)+S(rot)+S(trans))
     S(el)   - electronic entropy
     S(vib)  - vibrational entropy
     S(rot)  - rotational entropy
     S(trans)- translational entropy
The entropies will be listed as multiplied by the temperature to get
units of energy

Electronic entropy                ...      0.00065446 Eh      0.41 kcal/mol
Vibrational entropy               ...      0.02303248 Eh     14.45 kcal/mol
Rotational entropy                ...      0.01509075 Eh      9.47 kcal/mol
Translational entropy             ...      0.02025680 Eh     12.71 kcal/mol
-----------------------------------------------------------------------
Final entropy term                ...      0.05903448 Eh     37.04 kcal/mol

In case the symmetry of your molecule has not been determined correctly
or in case you have a reason to use a different symmetry number we print 
out the resulting rotational entropy values for sn=1,12 :
 --------------------------------------------------------
|  sn= 1 | S(rot)=       0.01509075 Eh      9.47 kcal/mol|
|  sn= 2 | S(rot)=       0.01443629 Eh      9.06 kcal/mol|
|  sn= 3 | S(rot)=       0.01405346 Eh      8.82 kcal/mol|
|  sn= 4 | S(rot)=       0.01378184 Eh      8.65 kcal/mol|
|  sn= 5 | S(rot)=       0.01357115 Eh      8.52 kcal/mol|
|  sn= 6 | S(rot)=       0.01339901 Eh      8.41 kcal/mol|
|  sn= 7 | S(rot)=       0.01325346 Eh      8.32 kcal/mol|
|  sn= 8 | S(rot)=       0.01312738 Eh      8.24 kcal/mol|
|  sn= 9 | S(rot)=       0.01301617 Eh      8.17 kcal/mol|
|  sn=10 | S(rot)=       0.01291669 Eh      8.11 kcal/mol|
|  sn=11 | S(rot)=       0.01282670 Eh      8.05 kcal/mol|
|  sn=12 | S(rot)=       0.01274455 Eh      8.00 kcal/mol|
 --------------------------------------------------------


-------------------
GIBBS FREE ENERGY
-------------------

The Gibbs free energy is G = H - T*S

Total enthalpy                    ...   -764.79542705 Eh 
Total entropy correction          ...     -0.05903448 Eh    -37.04 kcal/mol
-----------------------------------------------------------------------
Final Gibbs free energy         ...   -764.85446152 Eh

For completeness - the Gibbs free energy minus the electronic energy
G-E(el)                           ...      0.00395969 Eh      2.48 kcal/mol


Timings for individual modules:

Sum of individual times         ...     7026.624 sec (= 117.110 min)
GTO integral calculation        ...       46.331 sec (=   0.772 min)   0.7 %
SCF iterations                  ...     4092.615 sec (=  68.210 min)  58.2 %
SCF Gradient evaluation         ...      822.813 sec (=  13.714 min)  11.7 %
Geometry relaxation             ...        1.120 sec (=   0.019 min)   0.0 %
Analytical frequency calculation...     2063.745 sec (=  34.396 min)  29.4 %
                             ****ORCA TERMINATED NORMALLY****
TOTAL RUN TIME: 0 days 1 hours 57 minutes 11 seconds 136 msec
