
                                 *****************
                                 * O   R   C   A *
                                 *****************

                                            #,                                       
                                            ###                                      
                                            ####                                     
                                            #####                                    
                                            ######                                   
                                           ########,                                 
                                     ,,################,,,,,                         
                               ,,#################################,,                 
                          ,,##########################################,,             
                       ,#########################################, ''#####,          
                    ,#############################################,,   '####,        
                  ,##################################################,,,,####,       
                ,###########''''           ''''###############################       
              ,#####''   ,,,,##########,,,,          '''####'''          '####       
            ,##' ,,,,###########################,,,                        '##       
           ' ,,###''''                  '''############,,,                           
         ,,##''                                '''############,,,,        ,,,,,,###''
      ,#''                                            '''#######################'''  
     '                                                          ''''####''''         
             ,#######,   #######,   ,#######,      ##                                
            ,#'     '#,  ##    ##  ,#'     '#,    #''#        ######   ,####,        
            ##       ##  ##   ,#'  ##            #'  '#       #        #'  '#        
            ##       ##  #######   ##           ,######,      #####,   #    #        
            '#,     ,#'  ##    ##  '#,     ,#' ,#      #,         ##   #,  ,#        
             '#######'   ##     ##  '#######'  #'      '#     #####' # '####'        



                  #######################################################
                  #                        -***-                        #
                  #          Department of theory and spectroscopy      #
                  #    Directorship and core code : Frank Neese         #
                  #        Max Planck Institute fuer Kohlenforschung    #
                  #                Kaiser Wilhelm Platz 1               #
                  #                 D-45470 Muelheim/Ruhr               #
                  #                      Germany                        #
                  #                                                     #
                  #                  All rights reserved                #
                  #                        -***-                        #
                  #######################################################



                         Program Version 5.0.4 -  RELEASE  -

 With contributions from (in alphabetic order):
   Daniel Aravena         : Magnetic Suceptibility
   Michael Atanasov       : Ab Initio Ligand Field Theory (pilot matlab implementation)
   Alexander A. Auer      : GIAO ZORA, VPT2 properties, NMR spectrum
   Ute Becker             : Parallelization
   Giovanni Bistoni       : ED, misc. LED, open-shell LED, HFLD
   Martin Brehm           : Molecular dynamics
   Dmytro Bykov           : SCF Hessian
   Vijay G. Chilkuri      : MRCI spin determinant printing, contributions to CSF-ICE
   Dipayan Datta          : RHF DLPNO-CCSD density
   Achintya Kumar Dutta   : EOM-CC, STEOM-CC
   Dmitry Ganyushin       : Spin-Orbit,Spin-Spin,Magnetic field MRCI
   Miquel Garcia          : C-PCM and meta-GGA Hessian, CC/C-PCM, Gaussian charge scheme
   Yang Guo               : DLPNO-NEVPT2, F12-NEVPT2, CIM, IAO-localization
   Andreas Hansen         : Spin unrestricted coupled pair/coupled cluster methods
   Benjamin Helmich-Paris : MC-RPA, TRAH-SCF, COSX integrals
   Lee Huntington         : MR-EOM, pCC
   Robert Izsak           : Overlap fitted RIJCOSX, COSX-SCS-MP3, EOM
   Marcus Kettner         : VPT2
   Christian Kollmar      : KDIIS, OOCD, Brueckner-CCSD(T), CCSD density, CASPT2, CASPT2-K
   Simone Kossmann        : Meta GGA functionals, TD-DFT gradient, OOMP2, MP2 Hessian
   Martin Krupicka        : Initial AUTO-CI
   Lucas Lang             : DCDCAS
   Marvin Lechner         : AUTO-CI (C++ implementation), FIC-MRCC
   Dagmar Lenk            : GEPOL surface, SMD
   Dimitrios Liakos       : Extrapolation schemes; Compound Job, initial MDCI parallelization
   Dimitrios Manganas     : Further ROCIS development; embedding schemes
   Dimitrios Pantazis     : SARC Basis sets
   Anastasios Papadopoulos: AUTO-CI, single reference methods and gradients
   Taras Petrenko         : DFT Hessian,TD-DFT gradient, ASA, ECA, R-Raman, ABS, FL, XAS/XES, NRVS
   Peter Pinski           : DLPNO-MP2, DLPNO-MP2 Gradient
   Christoph Reimann      : Effective Core Potentials
   Marius Retegan         : Local ZFS, SOC
   Christoph Riplinger    : Optimizer, TS searches, QM/MM, DLPNO-CCSD(T), (RO)-DLPNO pert. Triples
   Tobias Risthaus        : Range-separated hybrids, TD-DFT gradient, RPA, STAB
   Michael Roemelt        : Original ROCIS implementation
   Masaaki Saitow         : Open-shell DLPNO-CCSD energy and density
   Barbara Sandhoefer     : DKH picture change effects
   Avijit Sen             : IP-ROCIS
   Kantharuban Sivalingam : CASSCF convergence, NEVPT2, FIC-MRCI
   Bernardo de Souza      : ESD, SOC TD-DFT
   Georgi Stoychev        : AutoAux, RI-MP2 NMR, DLPNO-MP2 response
   Willem Van den Heuvel  : Paramagnetic NMR
   Boris Wezisla          : Elementary symmetry handling
   Frank Wennmohs         : Technical directorship


 We gratefully acknowledge several colleagues who have allowed us to
 interface, adapt or use parts of their codes:
   Stefan Grimme, W. Hujo, H. Kruse, P. Pracht,  : VdW corrections, initial TS optimization,
                  C. Bannwarth, S. Ehlert          DFT functionals, gCP, sTDA/sTD-DF
   Ed Valeev, F. Pavosevic, A. Kumar             : LibInt (2-el integral package), F12 methods
   Garnet Chan, S. Sharma, J. Yang, R. Olivares  : DMRG
   Ulf Ekstrom                                   : XCFun DFT Library
   Mihaly Kallay                                 : mrcc  (arbitrary order and MRCC methods)
   Jiri Pittner, Ondrej Demel                    : Mk-CCSD
   Frank Weinhold                                : gennbo (NPA and NBO analysis)
   Christopher J. Cramer and Donald G. Truhlar   : smd solvation model
   Lars Goerigk                                  : TD-DFT with DH, B97 family of functionals
   V. Asgeirsson, H. Jonsson                     : NEB implementation
   FAccTs GmbH                                   : IRC, NEB, NEB-TS, DLPNO-Multilevel, CI-OPT
                                                   MM, QMMM, 2- and 3-layer-ONIOM, Crystal-QMMM,
                                                   LR-CPCM, SF, NACMEs, symmetry and pop. for TD-DFT,
                                                   nearIR, NL-DFT gradient (VV10), updates on ESD,
                                                   ML-optimized integration grids
   S Lehtola, MJT Oliveira, MAL Marques          : LibXC Library
   Liviu Ungur et al                             : ANISO software


 Your calculation uses the libint2 library for the computation of 2-el integrals
 For citations please refer to: http://libint.valeyev.net

 Your ORCA version has been built with support for libXC version: 5.1.0
 For citations please refer to: https://tddft.org/programs/libxc/

 This ORCA versions uses:
   CBLAS   interface :  Fast vector & matrix operations
   LAPACKE interface :  Fast linear algebra routines
   Shared memory     :  Shared parallel matrices


================================================================================

cite the ECPs for Mo [Def2-ECP] as follows:
Ce-Yb(ecp-28): M. Dolg, H. Stoll, H.Preuss, J. Chem. Phys., 1989, 90, 1730-1734.
Y-Cd(ecp-28), Hf-Hg(ecp-46): D. Andrae,U. Haeussermann, M. Dolg, H. Stoll, H. Preuss, Theor. Chim. Acta, 1990, 77, 123-141.
In-Sb(ecp-28), Tl-Bi(ecp-46): B. Metz, H. Stoll, M. Dolg, J. Chem. Phys., 2000, 113, 2563-2569.
Te-Xe(ecp-28), Po-Rn(ecp-46): K. A. Peterson, D. Figgen, E. Goll, H. Stoll, M. Dolg, J. Chem. Phys., 2003, 119, 11113-11123.
Rb(ecp-28), Cs(ecp-46): T. Leininger, A. Nicklass, W. Kuechle, H. Stoll, M. Dolg, A. Bergner, Chem. Phys. Lett., 1996, 255, 274-280.
Sr(ecp-28), Ba(ecp-46): M. Kaupp, P. V. Schleyer, H. Stoll and H. Preuss, J. Chem. Phys., 1991, 94, 1360-1366.
La(ecp-46): M. Dolg, H. Stoll, A. Savin, H. Preuss, Theor. Chim. Acta, 1989, 75, 173-194.
Lu(ecp-28): X. Cao, M. Dolg, J. Chem. Phys., 2001, 115, 7348-7355.

ECP parameters for Mo [Def2-ECP] have been obtained from:
TURBOMOLE (7.0.2)

----- Orbital basis set information -----
Your calculation utilizes the basis: def2-TZVPD
   F. Weigend and R. Ahlrichs, Phys. Chem. Chem. Phys. 7, 3297 (2005).
   D. Rappoport and F. Furche, J. Chem. Phys. 133 134105 (2010).

----- AuxJ basis set information -----
Your calculation utilizes the auxiliary basis: def2/J
   F. Weigend, Phys. Chem. Chem. Phys. 8, 1057 (2006).

================================================================================
                                        WARNINGS
                       Please study these warnings very carefully!
================================================================================


WARNING: Geometry Optimization
  ===> : Switching off AutoStart
         For restart on a previous wavefunction, please use MOREAD

INFO   : the flag for use of the SHARK integral package has been found!

================================================================================
                                       INPUT FILE
================================================================================
NAME = MoCO5NO+.inp
|  1> !B3LYP def2-TZVPD OPT FREQ TightSCF PAL8
|  2> 
|  3> %scf
|  4>   MaxIter 300
|  5> end
|  6> 
|  7> * xyz +1 1 
|  8> Mo        -1.33573        0.20929       -0.06216
|  9> C         -1.21402        2.33063        0.25555
| 10> C          0.79337        0.04970        0.17719
| 11> C         -1.45863       -1.91195       -0.37975
| 12> C         -3.46489        0.36735       -0.30155
| 13> O         -1.15044        3.44445        0.42211
| 14> O          1.91121       -0.03448        0.30262
| 15> O         -1.52342       -3.02570       -0.54626
| 16> O         -4.58283        0.44999       -0.42708
| 17> C         -1.59591       -0.09228        2.04901
| 18> N         -1.08526        0.49958       -2.09005
| 19> O         -1.73252       -0.25061        3.15745
| 20> O         -0.95128        0.65483       -3.17173
| 21> **                         ****END OF INPUT****
================================================================================

                       *****************************
                       * Geometry Optimization Run *
                       *****************************

Geometry optimization settings:
Update method            Update   .... BFGS
Choice of coordinates    CoordSys .... Z-matrix Internals
Initial Hessian          InHess   .... Almoef's Model

Convergence Tolerances:
Energy Change            TolE     ....  5.0000e-06 Eh
Max. Gradient            TolMAXG  ....  3.0000e-04 Eh/bohr
RMS Gradient             TolRMSG  ....  1.0000e-04 Eh/bohr
Max. Displacement        TolMAXD  ....  4.0000e-03 bohr
RMS Displacement         TolRMSD  ....  2.0000e-03 bohr
Strict Convergence                ....  False
------------------------------------------------------------------------------
                        ORCA OPTIMIZATION COORDINATE SETUP
------------------------------------------------------------------------------

The optimization will be done in new redundant internal coordinates
Making redundant internal coordinates   ...  (new redundants) done
Evaluating the initial hessian          ...  (Almloef) done
Evaluating the coordinates              ...  done
Calculating the B-matrix                .... done
Calculating the G-matrix                .... done
Diagonalizing the G-matrix              .... done
The first mode is                       ....    3
The number of degrees of freedom        ....   33

    -----------------------------------------------------------------
                    Redundant Internal Coordinates


    -----------------------------------------------------------------
         Definition                    Initial Value    Approx d2E/dq
    -----------------------------------------------------------------
      1. B(C   1,Mo  0)                  2.1484         0.389767   
      2. B(C   2,Mo  0)                  2.1484         0.389771   
      3. B(C   3,Mo  0)                  2.1484         0.389837   
      4. B(C   4,Mo  0)                  2.1484         0.389842   
      5. B(O   5,C   1)                  1.1280         1.465152   
      6. B(O   6,C   2)                  1.1280         1.465139   
      7. B(O   7,C   3)                  1.1280         1.465194   
      8. B(O   8,C   4)                  1.1280         1.465159   
      9. B(C   9,Mo  0)                  2.1484         0.389820   
     10. B(N  10,Mo  0)                  2.0638         0.476396   
     11. B(O  11,C   9)                  1.1280         1.465176   
     12. B(O  12,N  10)                  1.1009         1.449364   
     13. A(C   3,Mo  0,C   9)           89.9852         0.462069   
     14. A(C   2,Mo  0,C   9)           90.0064         0.462054   
     15. A(C   2,Mo  0,N  10)           89.9797         0.477104   
     16. A(C   1,Mo  0,N  10)           89.9741         0.477103   
     17. A(C   4,Mo  0,C   9)           89.9888         0.462070   
     18. A(C   4,Mo  0,N  10)           90.0252         0.477120   
     19. A(C   2,Mo  0,C   3)           89.9895         0.462058   
     20. A(C   3,Mo  0,C   4)           89.9700         0.462073   
     21. A(C   1,Mo  0,C   2)           90.0418         0.462043   
     22. A(C   3,Mo  0,N  10)           90.0326         0.477118   
     23. A(C   1,Mo  0,C   4)           89.9987         0.462058   
     24. A(C   1,Mo  0,C   9)           90.0082         0.462054   
     25. L(Mo  0,C   1,O   5,C   4, 2) 180.0152         0.521291   
     26. L(Mo  0,C   1,O   5,C   4, 1) 179.9822         0.521291   
     27. L(Mo  0,C   2,O   6,C   3, 1) 179.9786         0.521292   
     28. L(Mo  0,C   2,O   6,C   3, 2) 179.9873         0.521292   
     29. L(Mo  0,C   3,O   7,C   4, 2) 180.0192         0.521312   
     30. L(Mo  0,C   3,O   7,C   4, 1) 179.9882         0.521312   
     31. L(Mo  0,C   4,O   8,C   3, 2) 179.9849         0.521311   
     32. L(Mo  0,C   4,O   8,C   3, 1) 179.9836         0.521311   
     33. L(Mo  0,C   9,O  11,C   3, 2) 180.0005         0.521306   
     34. L(Mo  0,C   9,O  11,C   3, 1) 180.0002         0.521306   
     35. L(Mo  0,N  10,O  12,C   1, 2) 179.9751         0.533877   
     36. L(Mo  0,N  10,O  12,C   1, 1) 179.9779         0.533877   
    -----------------------------------------------------------------

Number of atoms                         .... 13
Number of degrees of freedom            .... 36

         *************************************************************
         *                GEOMETRY OPTIMIZATION CYCLE   1            *
         *************************************************************
---------------------------------
CARTESIAN COORDINATES (ANGSTROEM)
---------------------------------
  Mo    -1.335730    0.209290   -0.062160
  C     -1.214020    2.330630    0.255550
  C      0.793370    0.049700    0.177190
  C     -1.458630   -1.911950   -0.379750
  C     -3.464890    0.367350   -0.301550
  O     -1.150440    3.444450    0.422110
  O      1.911210   -0.034480    0.302620
  O     -1.523420   -3.025700   -0.546260
  O     -4.582830    0.449990   -0.427080
  C     -1.595910   -0.092280    2.049010
  N     -1.085260    0.499580   -2.090050
  O     -1.732520   -0.250610    3.157450
  O     -0.951280    0.654830   -3.171730

----------------------------
CARTESIAN COORDINATES (A.U.)
----------------------------
  NO LB      ZA    FRAG     MASS         X           Y           Z
   0 Mo   14.0000*   0    95.940   -2.524164    0.395501   -0.117465
   1 C     6.0000    0    12.011   -2.294165    4.404252    0.482920
   2 C     6.0000    0    12.011    1.499252    0.093919    0.334841
   3 C     6.0000    0    12.011   -2.756411   -3.613062   -0.717623
   4 C     6.0000    0    12.011   -6.547693    0.694191   -0.569847
   5 O     8.0000    0    15.999   -2.174017    6.509067    0.797672
   6 O     8.0000    0    15.999    3.611663   -0.065158    0.571869
   7 O     8.0000    0    15.999   -2.878847   -5.717744   -1.032282
   8 O     8.0000    0    15.999   -8.660294    0.850358   -0.807064
   9 C     6.0000    0    12.011   -3.015833   -0.174384    3.872068
  10 N     7.0000    0    14.007   -2.050844    0.944069   -3.949622
  11 O     8.0000    0    15.999   -3.273988   -0.473584    5.966716
  12 O     8.0000    0    15.999   -1.797659    1.237449   -5.993701
* core charge reduced due to ECP

--------------------------------
INTERNAL COORDINATES (ANGSTROEM)
--------------------------------
 Mo     0   0   0     0.000000000000     0.00000000     0.00000000
 C      1   0   0     2.148449758268     0.00000000     0.00000000
 C      1   2   0     2.148446927573    90.04180662     0.00000000
 C      1   2   3     2.148401023017   179.96801837   168.07112495
 C      1   2   3     2.148397738153    89.99872964   179.99513257
 O      2   1   3     1.127998068438   179.97922806   148.85115600
 O      3   1   2     1.128000542065   179.97682742   202.81888679
 O      4   1   5     1.127990419596   179.98200571   311.06927216
 O      5   1   2     1.127996894544   179.98042861   213.18424118
 C      1   2   3     2.148412638717    90.00818259    90.00637566
 N      1   2   3     2.063817181123    89.97405851   270.02034283
 O     10   1   2     1.127993756454   179.99959456    54.30417941
 O     11   1   2     1.100947240017   179.97149685    39.09338573

---------------------------
INTERNAL COORDINATES (A.U.)
---------------------------
 Mo     0   0   0     0.000000000000     0.00000000     0.00000000
 C      1   0   0     4.059981655615     0.00000000     0.00000000
 C      1   2   0     4.059976306378    90.04180662     0.00000000
 C      1   2   3     4.059889559338   179.96801837   168.07112495
 C      1   2   3     4.059883351845    89.99872964   179.99513257
 O      2   1   3     2.131607428940   179.97922806   148.85115600
 O      3   1   2     2.131612103418   179.97682742   202.81888679
 O      4   1   5     2.131592974723   179.98200571   311.06927216
 O      5   1   2     2.131605210601   179.98042861   213.18424118
 C      1   2   3     4.059911509831    90.00818259    90.00637566
 N      1   2   3     3.900049262805    89.97405851   270.02034283
 O     10   1   2     2.131599280472   179.99959456    54.30417941
 O     11   1   2     2.080488771528   179.97149685    39.09338573

---------------------
BASIS SET INFORMATION
---------------------
There are 4 groups of distinct atoms

 Group   1 Type Mo  : 7s7p5d1f contracted to 6s4p3d1f pattern {211111/4111/311/1}
 Group   2 Type C   : 12s6p3d1f contracted to 6s3p3d1f pattern {621111/411/111/1}
 Group   3 Type O   : 12s7p3d1f contracted to 6s4p3d1f pattern {621111/4111/111/1}
 Group   4 Type N   : 12s6p3d1f contracted to 6s3p3d1f pattern {621111/411/111/1}

Atom   0Mo   basis set group =>   1
Atom   1C    basis set group =>   2
Atom   2C    basis set group =>   2
Atom   3C    basis set group =>   2
Atom   4C    basis set group =>   2
Atom   5O    basis set group =>   3
Atom   6O    basis set group =>   3
Atom   7O    basis set group =>   3
Atom   8O    basis set group =>   3
Atom   9C    basis set group =>   2
Atom  10N    basis set group =>   4
Atom  11O    basis set group =>   3
Atom  12O    basis set group =>   3
---------------------------------
AUXILIARY/J BASIS SET INFORMATION
---------------------------------
There are 4 groups of distinct atoms

 Group   1 Type Mo  : 11s5p5d3f3g contracted to 8s5p5d2f3g pattern {41111111/11111/11111/21/111}
 Group   2 Type C   : 12s5p4d2f1g contracted to 6s4p3d1f1g pattern {711111/2111/211/2/1}
 Group   3 Type O   : 12s5p4d2f1g contracted to 6s4p3d1f1g pattern {711111/2111/211/2/1}
 Group   4 Type N   : 12s5p4d2f1g contracted to 6s4p3d1f1g pattern {711111/2111/211/2/1}

Atom   0Mo   basis set group =>   1
Atom   1C    basis set group =>   2
Atom   2C    basis set group =>   2
Atom   3C    basis set group =>   2
Atom   4C    basis set group =>   2
Atom   5O    basis set group =>   3
Atom   6O    basis set group =>   3
Atom   7O    basis set group =>   3
Atom   8O    basis set group =>   3
Atom   9C    basis set group =>   2
Atom  10N    basis set group =>   4
Atom  11O    basis set group =>   3
Atom  12O    basis set group =>   3
-------------------------
ECP PARAMETER INFORMATION
-------------------------

 Group 1, Type Mo ECP Def2-ECP (replacing 28 core electrons, lmax=3)

Atom   0Mo   ECP group =>   1



           ************************************************************
           *        Program running with 8 parallel MPI-processes     *
           *              working on a common directory               *
           ************************************************************
------------------------------------------------------------------------------
                           ORCA GTO INTEGRAL CALCULATION
                           -- RI-GTO INTEGRALS CHOSEN --
------------------------------------------------------------------------------
------------------------------------------------------------------------------
                   ___                                                        
                  /   \      - P O W E R E D   B Y -                         
                 /     \                                                     
                 |  |  |   _    _      __       _____    __    __             
                 |  |  |  | |  | |    /  \     |  _  \  |  |  /  |          
                  \  \/   | |  | |   /    \    | | | |  |  | /  /          
                 / \  \   | |__| |  /  /\  \   | |_| |  |  |/  /          
                |  |  |   |  __  | /  /__\  \  |    /   |      \           
                |  |  |   | |  | | |   __   |  |    \   |  |\   \          
                \     /   | |  | | |  |  |  |  | |\  \  |  | \   \       
                 \___/    |_|  |_| |__|  |__|  |_| \__\ |__|  \__/        
                                                                              
                      - O R C A' S   B I G   F R I E N D -                    
                                      &                                       
                       - I N T E G R A L  F E E D E R -                       
                                                                              
 v1 FN, 2020, v2 2021                                                         
------------------------------------------------------------------------------


Reading SHARK input file MoCO5NO+.SHARKINP.tmp ... ok
----------------------
SHARK INTEGRAL PACKAGE
----------------------

Number of atoms                             ...     13
Number of basis functions                   ...    502
Number of shells                            ...    176
Maximum angular momentum                    ...      3
Integral batch strategy                     ... SHARK/LIBINT Hybrid
RI-J (if used) integral strategy            ... SPLIT-RIJ (Revised 2003 algorithm where possible)
Printlevel                                  ...      1
Contraction scheme used                     ... SEGMENTED contraction
Coulomb Range Separation                    ... NOT USED
Exchange Range Separation                   ... NOT USED
Finite Nucleus Model                        ... NOT USED
Auxiliary Coulomb fitting basis             ... AVAILABLE
   # of basis functions in Aux-J            ...    677
   # of shells in Aux-J                     ...    203
   Maximum angular momentum in Aux-J        ...      4
Auxiliary J/K fitting basis                 ... NOT available
Auxiliary Correlation fitting basis         ... NOT available
Auxiliary 'external' fitting basis          ... NOT available
Integral threshold                          ...     2.500000e-11
Primitive cut-off                           ...     2.500000e-12
Primitive pair pre-selection threshold      ...     2.500000e-12

Calculating pre-screening integrals         ... done (  0.1 sec) Dimension = 176
Organizing shell pair data                  ... done (  0.2 sec)
Shell pair information
Total number of shell pairs                 ...     15576
Shell pairs after pre-screening             ...     13350
Total number of primitive shell pairs       ...     42469
Primitive shell pairs kept                  ...     26663
          la=0 lb=0:   2449 shell pairs
          la=1 lb=0:   3196 shell pairs
          la=1 lb=1:   1023 shell pairs
          la=2 lb=0:   2557 shell pairs
          la=2 lb=1:   1622 shell pairs
          la=2 lb=2:    692 shell pairs
          la=3 lb=0:    757 shell pairs
          la=3 lb=1:    540 shell pairs
          la=3 lb=2:    444 shell pairs
          la=3 lb=3:     70 shell pairs

Calculating one electron integrals          ... done (  0.0 sec)
Calculating ECP integrals                   ... done (  1.3 sec)
Calculating RI/J V-Matrix + Cholesky decomp.... done (  0.2 sec)
Calculating Nuclear repulsion               ... done (  0.0 sec) ENN=    765.172784055145 Eh

SHARK setup successfully completed in   2.2 seconds

Maximum memory used throughout the entire GTOINT-calculation: 25.2 MB


           ************************************************************
           *        Program running with 8 parallel MPI-processes     *
           *              working on a common directory               *
           ************************************************************
-------------------------------------------------------------------------------
                                 ORCA SCF
-------------------------------------------------------------------------------

------------
SCF SETTINGS
------------
Hamiltonian:
 Density Functional     Method          .... DFT(GTOs)
 Exchange Functional    Exchange        .... B88
   X-Alpha parameter    XAlpha          ....  0.666667
   Becke's b parameter  XBeta           ....  0.004200
 Correlation Functional Correlation     .... LYP
 LDA part of GGA corr.  LDAOpt          .... VWN-5
 Gradients option       PostSCFGGA      .... off
 Hybrid DFT is turned on
   Fraction HF Exchange ScalHFX         ....  0.200000
   Scaling of DF-GGA-X  ScalDFX         ....  0.720000
   Scaling of DF-GGA-C  ScalDFC         ....  0.810000
   Scaling of DF-LDA-C  ScalLDAC        ....  1.000000
   Perturbative correction              ....  0.000000
   Density functional embedding theory  .... OFF
   NL short-range parameter             ....  4.800000
 RI-approximation to the Coulomb term is turned on
   Number of AuxJ basis functions       .... 677
   RIJ-COSX (HFX calculated with COS-X)).... on


General Settings:
 Integral files         IntName         .... MoCO5NO+
 Hartree-Fock type      HFTyp           .... RHF
 Total Charge           Charge          ....    1
 Multiplicity           Mult            ....    1
 Number of Electrons    NEL             ....   98
 Basis Dimension        Dim             ....  502
 Nuclear Repulsion      ENuc            ....    765.1727840551 Eh

Convergence Acceleration:
 DIIS                   CNVDIIS         .... on
   Start iteration      DIISMaxIt       ....    12
   Startup error        DIISStart       ....  0.200000
   # of expansion vecs  DIISMaxEq       ....     5
   Bias factor          DIISBfac        ....   1.050
   Max. coefficient     DIISMaxC        ....  10.000
 Trust-Rad. Augm. Hess. CNVTRAH         .... auto
   Auto Start mean grad. ratio tolernc. ....  1.125000
   Auto Start start iteration           ....    20
   Auto Start num. interpolation iter.  ....    10
   Max. Number of Micro iterations      ....    16
   Max. Number of Macro iterations      .... Maxiter - #DIIS iter
   Number of Davidson start vectors     ....     2
   Converg. threshold I  (grad. norm)   ....   1.000e-05
   Converg. threshold II (energy diff.) ....   1.000e-08
   Grad. Scal. Fac. for Micro threshold ....   0.100
   Minimum threshold for Micro iter.    ....   0.010
   NR start threshold (gradient norm)   ....   0.001
   Initial trust radius                 ....   0.400
   Minimum AH scaling param. (alpha)    ....   1.000
   Maximum AH scaling param. (alpha)    .... 1000.000
   Orbital update algorithm             .... Taylor
   White noise on init. David. guess    .... on
   Maximum white noise                  ....   0.010
   Quad. conv. algorithm                .... NR
 SOSCF                  CNVSOSCF        .... off
 Level Shifting         CNVShift        .... on
   Level shift para.    LevelShift      ....    0.2500
   Turn off err/grad.   ShiftErr        ....    0.0010
 Zerner damping         CNVZerner       .... off
 Static damping         CNVDamp         .... on
   Fraction old density DampFac         ....    0.7000
   Max. Damping (<1)    DampMax         ....    0.9800
   Min. Damping (>=0)   DampMin         ....    0.0000
   Turn off err/grad.   DampErr         ....    0.1000
 Fernandez-Rico         CNVRico         .... off

SCF Procedure:
 Maximum # iterations   MaxIter         ....   300
 SCF integral mode      SCFMode         .... Direct
   Integral package                     .... SHARK and LIBINT hybrid scheme
 Reset frequency        DirectResetFreq ....    20
 Integral Threshold     Thresh          ....  2.500e-11 Eh
 Primitive CutOff       TCut            ....  2.500e-12 Eh

Convergence Tolerance:
 Convergence Check Mode ConvCheckMode   .... Total+1el-Energy
 Convergence forced     ConvForced      .... 0
 Energy Change          TolE            ....  1.000e-08 Eh
 1-El. energy change                    ....  1.000e-05 Eh
 DIIS Error             TolErr          ....  5.000e-07


Diagonalization of the overlap matrix:
Smallest eigenvalue                        ... 8.325e-06
Time for diagonalization                   ...    0.075 sec
Threshold for overlap eigenvalues          ... 1.000e-08
Number of eigenvalues below threshold      ... 0
Time for construction of square roots      ...    0.120 sec
Total time needed                          ...    0.197 sec

Time for model grid setup =    0.160 sec

------------------------------
INITIAL GUESS: MODEL POTENTIAL
------------------------------
Loading Hartree-Fock densities                     ... done
  calling C:\orca_5_0_4\orca MoCO5NO+_atom42.inp > MoCO5NO+_atom42.out in order to generate an atomic fitting density for atom 0 (Mo with ECP) on-the-fly... 
    atom 0 (Mo), assumed electronic state with S=5: 1s2 2s2 2p6 3s2 3p6 4s2 3d10 4p6 5s2 4d4           ... done
Calculating cut-offs                               ... done
Initializing the effective Hamiltonian             ... done
Setting up the integral package (SHARK)            ... done
Starting the Coulomb interaction                   ... done (   0.2 sec)
Reading the grid                                   ... done
Mapping shells                                     ... done
Starting the XC term evaluation                    ... done (   0.2 sec)
  promolecular density results
     # of electrons  =    127.000036703
     EX              =   -201.060998256
     EC              =     -5.119836299
     EX+EC           =   -206.180834555
Transforming the Hamiltonian                       ... done (   0.1 sec)
Diagonalizing the Hamiltonian                      ... done (   0.1 sec)
Back transforming the eigenvectors                 ... done (   0.0 sec)
Now organizing SCF variables                       ... done
                      ------------------
                      INITIAL GUESS DONE (   3.5 sec)
                      ------------------
-------------------
DFT GRID GENERATION
-------------------

General Integration Accuracy     IntAcc      ... 4.388
Radial Grid Type                 RadialGrid  ... OptM3 with GC (2021)
Angular Grid (max. ang.)         AngularGrid ... 4 (Lebedev-302)
Angular grid pruning method      GridPruning ... 4 (adaptive)
Weight generation scheme         WeightScheme... Becke
Basis function cutoff            BFCut       ... 1.0000e-11
Integration weight cutoff        WCut        ... 1.0000e-14
Angular grids for H and He will be reduced by one unit
Partially contracted basis set               ... off
Rotationally invariant grid construction     ... off

Total number of grid points                  ...    87457
Total number of batches                      ...     1372
Average number of points per batch           ...       63
Average number of grid points per atom       ...     6727
Time for grid setup =    0.656 sec

--------------------
COSX GRID GENERATION
--------------------

GRIDX 1
-------
General Integration Accuracy     IntAcc      ... 3.816
Radial Grid Type                 RadialGrid  ... OptM3 with GC (2021)
Angular Grid (max. ang.)         AngularGrid ... 1 (Lebedev-50)
Angular grid pruning method      GridPruning ... 4 (adaptive)
Weight generation scheme         WeightScheme... Becke
Basis function cutoff            BFCut       ... 1.0000e-11
Integration weight cutoff        WCut        ... 1.0000e-14
Angular grids for H and He will be reduced by one unit
Partially contracted basis set               ... on
Rotationally invariant grid construction     ... off

Total number of grid points                  ...    10845
Total number of batches                      ...      175
Average number of points per batch           ...       61
Average number of grid points per atom       ...      834
UseSFitting                                  ... on

GRIDX 2
-------
General Integration Accuracy     IntAcc      ... 4.020
Radial Grid Type                 RadialGrid  ... OptM3 with GC (2021)
Angular Grid (max. ang.)         AngularGrid ... 2 (Lebedev-110)
Angular grid pruning method      GridPruning ... 4 (adaptive)
Weight generation scheme         WeightScheme... Becke
Basis function cutoff            BFCut       ... 1.0000e-11
Integration weight cutoff        WCut        ... 1.0000e-14
Angular grids for H and He will be reduced by one unit
Partially contracted basis set               ... on
Rotationally invariant grid construction     ... off

Total number of grid points                  ...    29081
Total number of batches                      ...      460
Average number of points per batch           ...       63
Average number of grid points per atom       ...     2237
UseSFitting                                  ... on

GRIDX 3
-------
General Integration Accuracy     IntAcc      ... 4.338
Radial Grid Type                 RadialGrid  ... OptM3 with GC (2021)
Angular Grid (max. ang.)         AngularGrid ... 3 (Lebedev-194)
Angular grid pruning method      GridPruning ... 4 (adaptive)
Weight generation scheme         WeightScheme... Becke
Basis function cutoff            BFCut       ... 1.0000e-11
Integration weight cutoff        WCut        ... 1.0000e-14
Angular grids for H and He will be reduced by one unit
Partially contracted basis set               ... on
Rotationally invariant grid construction     ... off

Total number of grid points                  ...    62186
Total number of batches                      ...      978
Average number of points per batch           ...       63
Average number of grid points per atom       ...     4784
UseSFitting                                  ... on

Time for X-Grid setup             =    1.662 sec

--------------
SCF ITERATIONS
--------------
ITER       Energy         Delta-E        Max-DP      RMS-DP      [F,P]     Damp
               ***  Starting incremental Fock matrix formation  ***
  0   -764.3048937808   0.000000000000 0.15772603  0.00099377  0.4232503 0.7000
  1   -764.4667512691  -0.161857488296 0.09338583  0.00059270  0.2770215 0.7000
                               ***Turning on DIIS***
  2   -764.4895449307  -0.022793661554 0.04970226  0.00032696  0.1853286 0.7000
  3   -764.5254119549  -0.035867024215 0.03185465  0.00021793  0.1323507 0.7000
  4   -764.5501619767  -0.024750021865 0.08855226  0.00049836  0.0932982 0.0000
  5   -764.6029325196  -0.052770542822 0.00518647  0.00006089  0.0042345 0.0000
  6   -764.6031201597  -0.000187640159 0.00457557  0.00002713  0.0037130 0.0000
  7   -764.6031640188  -0.000043859065 0.00109665  0.00001133  0.0021291 0.0000
  8   -764.6031845023  -0.000020483463 0.00056710  0.00000623  0.0003448 0.0000
               *** Restarting incremental Fock matrix formation ***
                                   *** Resetting DIIS ***
  9   -764.6031858846  -0.000001382377 0.00179278  0.00002345  0.0005432 0.0000
 10   -764.6031569617   0.000028922963 0.00068130  0.00000563  0.0027277 0.0000
 11   -764.6031789575  -0.000021995822 0.00031119  0.00000298  0.0014783 0.0000
 12   -764.6031849343  -0.000005976855 0.00040702  0.00000456  0.0007795 0.0000
 13   -764.6031868120  -0.000001877630 0.00014705  0.00000179  0.0003014 0.0000
 14   -764.6031871516  -0.000000339636 0.00027398  0.00000192  0.0000657 0.0000
 15   -764.6031871645  -0.000000012939 0.00015301  0.00000117  0.0000434 0.0000
 16   -764.6031871679  -0.000000003380 0.00038383  0.00000273  0.0000149 0.0000
 17   -764.6031871795  -0.000000011550 0.00036807  0.00000258  0.0000025 0.0000
 18   -764.6031871743   0.000000005143 0.00012515  0.00000092  0.0000038 0.0000
                 **** Energy Check signals convergence ****

               *****************************************************
               *                     SUCCESS                       *
               *           SCF CONVERGED AFTER  19 CYCLES          *
               *****************************************************

Old exchange energy                            =    -17.627833011 Eh
New exchange energy                            =    -17.627835303 Eh
Exchange energy change after final integration =     -0.000002292 Eh
Total energy after final integration           =   -764.603189463 Eh
Final COS-X integration done in                =    10.467 sec

----------------
TOTAL SCF ENERGY
----------------

Total Energy       :         -764.60318946 Eh          -20805.91054 eV

Components:
Nuclear Repulsion  :          765.17278406 Eh           20821.40999 eV
Electronic Energy  :        -1529.77597352 Eh          -41627.32053 eV
One Electron Energy:        -2571.15991530 Eh          -69964.81824 eV
Two Electron Energy:         1041.38394178 Eh           28337.49771 eV
Max COSX asymmetry :            0.00000633 Eh               0.00017 eV

Virial components:
Potential Energy   :        -1481.55432962 Eh          -40315.14289 eV
Kinetic Energy     :          716.95114015 Eh           19509.23235 eV
Virial Ratio       :            2.06646485


DFT components:
N(Alpha)           :       48.999956083781 electrons
N(Beta)            :       48.999956083781 electrons
N(Total)           :       97.999912167563 electrons
E(X)               :      -70.585829889520 Eh       
E(C)               :       -4.073395125602 Eh       
E(XC)              :      -74.659225015122 Eh       
DFET-embed. en.    :        0.000000000000 Eh       

---------------
SCF CONVERGENCE
---------------

  Last Energy change         ...    3.4322e-09  Tolerance :   1.0000e-08
  Last MAX-Density change    ...    0.0000e+00  Tolerance :   1.0000e-07
  Last RMS-Density change    ...    0.0000e+00  Tolerance :   5.0000e-09
  Last DIIS Error            ...    1.1748e-06  Tolerance :   5.0000e-07

             **** THE GBW FILE WAS UPDATED (MoCO5NO+.gbw) ****
             **** DENSITY MoCO5NO+.scfp WAS UPDATED ****
             **** ENERGY FILE WAS UPDATED (MoCO5NO+.en.tmp) ****
             **** THE GBW FILE WAS UPDATED (MoCO5NO+.gbw) ****
             **** DENSITY MoCO5NO+.scfp WAS UPDATED ****
----------------
ORBITAL ENERGIES
----------------

  NO   OCC          E(Eh)            E(eV) 
   0   2.0000     -19.478544      -530.0381 
   1   2.0000     -19.408515      -528.1325 
   2   2.0000     -19.392658      -527.7011 
   3   2.0000     -19.392655      -527.7010 
   4   2.0000     -19.392644      -527.7007 
   5   2.0000     -19.392639      -527.7005 
   6   2.0000     -14.702749      -400.0821 
   7   2.0000     -10.483299      -285.2651 
   8   2.0000     -10.469721      -284.8956 
   9   2.0000     -10.469718      -284.8955 
  10   2.0000     -10.469708      -284.8952 
  11   2.0000     -10.469705      -284.8952 
  12   2.0000      -2.769709       -75.3676 
  13   2.0000      -1.776723       -48.3471 
  14   2.0000      -1.766197       -48.0607 
  15   2.0000      -1.766194       -48.0606 
  16   2.0000      -1.500238       -40.8235 
  17   2.0000      -1.339904       -36.4606 
  18   2.0000      -1.326604       -36.0987 
  19   2.0000      -1.326351       -36.0918 
  20   2.0000      -1.326348       -36.0918 
  21   2.0000      -1.326245       -36.0890 
  22   2.0000      -0.897681       -24.4271 
  23   2.0000      -0.767645       -20.8887 
  24   2.0000      -0.748457       -20.3665 
  25   2.0000      -0.748455       -20.3665 
  26   2.0000      -0.747706       -20.3461 
  27   2.0000      -0.742309       -20.1992 
  28   2.0000      -0.739942       -20.1348 
  29   2.0000      -0.734602       -19.9895 
  30   2.0000      -0.734599       -19.9894 
  31   2.0000      -0.660410       -17.9707 
  32   2.0000      -0.656251       -17.8575 
  33   2.0000      -0.656250       -17.8575 
  34   2.0000      -0.649700       -17.6792 
  35   2.0000      -0.646507       -17.5923 
  36   2.0000      -0.641470       -17.4553 
  37   2.0000      -0.641464       -17.4551 
  38   2.0000      -0.639736       -17.4081 
  39   2.0000      -0.639734       -17.4081 
  40   2.0000      -0.638765       -17.3817 
  41   2.0000      -0.638608       -17.3774 
  42   2.0000      -0.634194       -17.2573 
  43   2.0000      -0.623563       -16.9680 
  44   2.0000      -0.592324       -16.1179 
  45   2.0000      -0.592312       -16.1176 
  46   2.0000      -0.434264       -11.8169 
  47   2.0000      -0.434260       -11.8168 
  48   2.0000      -0.419851       -11.4247 
  49   0.0000      -0.296467        -8.0673 
  50   0.0000      -0.296461        -8.0671 
  51   0.0000      -0.237362        -6.4589 
  52   0.0000      -0.219219        -5.9653 
  53   0.0000      -0.219198        -5.9647 
  54   0.0000      -0.205789        -5.5998 
  55   0.0000      -0.190909        -5.1949 
  56   0.0000      -0.190899        -5.1946 
  57   0.0000      -0.165167        -4.4944 
  58   0.0000      -0.163799        -4.4572 
  59   0.0000      -0.162293        -4.4162 
  60   0.0000      -0.162292        -4.4162 
  61   0.0000      -0.159337        -4.3358 
  62   0.0000      -0.150293        -4.0897 
  63   0.0000      -0.130611        -3.5541 
  64   0.0000      -0.100301        -2.7293 
  65   0.0000      -0.096635        -2.6296 
  66   0.0000      -0.096630        -2.6294 
  67   0.0000      -0.063962        -1.7405 
  68   0.0000      -0.063962        -1.7405 
  69   0.0000      -0.058614        -1.5950 
  70   0.0000      -0.058134        -1.5819 
  71   0.0000      -0.053158        -1.4465 
  72   0.0000      -0.030602        -0.8327 
  73   0.0000      -0.027106        -0.7376 
  74   0.0000      -0.027103        -0.7375 
  75   0.0000      -0.022945        -0.6244 
  76   0.0000      -0.020814        -0.5664 
  77   0.0000      -0.020811        -0.5663 
  78   0.0000      -0.020436        -0.5561 
  79   0.0000      -0.017102        -0.4654 
  80   0.0000       0.009770         0.2659 
  81   0.0000       0.013070         0.3556 
  82   0.0000       0.023449         0.6381 
  83   0.0000       0.023450         0.6381 
  84   0.0000       0.025094         0.6829 
  85   0.0000       0.026214         0.7133 
  86   0.0000       0.028139         0.7657 
  87   0.0000       0.028150         0.7660 
  88   0.0000       0.067522         1.8374 
  89   0.0000       0.072538         1.9739 
  90   0.0000       0.072567         1.9746 
  91   0.0000       0.084752         2.3062 
  92   0.0000       0.093234         2.5370 
  93   0.0000       0.093269         2.5380 
  94   0.0000       0.094092         2.5604 
  95   0.0000       0.105748         2.8775 
  96   0.0000       0.105825         2.8796 
  97   0.0000       0.107989         2.9385 
  98   0.0000       0.107992         2.9386 
  99   0.0000       0.110755         3.0138 
 100   0.0000       0.114659         3.1200 
 101   0.0000       0.134355         3.6560 
 102   0.0000       0.137072         3.7299 
 103   0.0000       0.137087         3.7303 
 104   0.0000       0.144550         3.9334 
 105   0.0000       0.145411         3.9568 
 106   0.0000       0.147396         4.0108 
 107   0.0000       0.147422         4.0116 
 108   0.0000       0.147455         4.0124 
 109   0.0000       0.148611         4.0439 
 110   0.0000       0.168576         4.5872 
 111   0.0000       0.171354         4.6628 
 112   0.0000       0.171449         4.6654 
 113   0.0000       0.180192         4.9033 
 114   0.0000       0.191819         5.2196 
 115   0.0000       0.205288         5.5862 
 116   0.0000       0.210240         5.7209 
 117   0.0000       0.215099         5.8531 
 118   0.0000       0.215389         5.8610 
 119   0.0000       0.215425         5.8620 
 120   0.0000       0.218648         5.9497 
 121   0.0000       0.218654         5.9499 
 122   0.0000       0.219722         5.9789 
 123   0.0000       0.220076         5.9886 
 124   0.0000       0.220093         5.9890 
 125   0.0000       0.223392         6.0788 
 126   0.0000       0.227549         6.1919 
 127   0.0000       0.241013         6.5583 
 128   0.0000       0.241025         6.5586 
 129   0.0000       0.241857         6.5813 
 130   0.0000       0.276128         7.5138 
 131   0.0000       0.295980         8.0540 
 132   0.0000       0.295993         8.0544 
 133   0.0000       0.303267         8.2523 
 134   0.0000       0.326691         8.8897 
 135   0.0000       0.344278         9.3683 
 136   0.0000       0.345006         9.3881 
 137   0.0000       0.345031         9.3888 
 138   0.0000       0.346095         9.4177 
 139   0.0000       0.346113         9.4182 
 140   0.0000       0.351152         9.5553 
 141   0.0000       0.353454         9.6180 
 142   0.0000       0.365387         9.9427 
 143   0.0000       0.365417         9.9435 
 144   0.0000       0.372126        10.1261 
 145   0.0000       0.382504        10.4085 
 146   0.0000       0.383818        10.4442 
 147   0.0000       0.383836        10.4447 
 148   0.0000       0.395042        10.7496 
 149   0.0000       0.397821        10.8253 
 150   0.0000       0.397868        10.8265 
 151   0.0000       0.399153        10.8615 
 152   0.0000       0.404186        10.9985 
 153   0.0000       0.410970        11.1831 
 154   0.0000       0.410998        11.1838 
 155   0.0000       0.417159        11.3515 
 156   0.0000       0.421522        11.4702 
 157   0.0000       0.421690        11.4748 
 158   0.0000       0.428860        11.6699 
 159   0.0000       0.428865        11.6700 
 160   0.0000       0.434517        11.8238 
 161   0.0000       0.442657        12.0453 
 162   0.0000       0.462555        12.5868 
 163   0.0000       0.462609        12.5882 
 164   0.0000       0.482028        13.1166 
 165   0.0000       0.484552        13.1853 
 166   0.0000       0.489540        13.3211 
 167   0.0000       0.508834        13.8461 
 168   0.0000       0.528021        14.3682 
 169   0.0000       0.531560        14.4645 
 170   0.0000       0.542236        14.7550 
 171   0.0000       0.542254        14.7555 
 172   0.0000       0.544575        14.8187 
 173   0.0000       0.545470        14.8430 
 174   0.0000       0.568225        15.4622 
 175   0.0000       0.568243        15.4627 
 176   0.0000       0.571567        15.5531 
 177   0.0000       0.571591        15.5538 
 178   0.0000       0.578233        15.7345 
 179   0.0000       0.588589        16.0163 
 180   0.0000       0.595852        16.2139 
 181   0.0000       0.598673        16.2907 
 182   0.0000       0.610267        16.6062 
 183   0.0000       0.610277        16.6065 
 184   0.0000       0.610504        16.6126 
 185   0.0000       0.645661        17.5693 
 186   0.0000       0.645686        17.5700 
 187   0.0000       0.646629        17.5957 
 188   0.0000       0.669131        18.2080 
 189   0.0000       0.677190        18.4273 
 190   0.0000       0.680134        18.5074 
 191   0.0000       0.688679        18.7399 
 192   0.0000       0.693182        18.8624 
 193   0.0000       0.693207        18.8631 
 194   0.0000       0.695105        18.9148 
 195   0.0000       0.697305        18.9746 
 196   0.0000       0.706826        19.2337 
 197   0.0000       0.706920        19.2363 
 198   0.0000       0.711422        19.3588 
 199   0.0000       0.732872        19.9425 
 200   0.0000       0.733554        19.9610 
 201   0.0000       0.740344        20.1458 
 202   0.0000       0.743836        20.2408 
 203   0.0000       0.743856        20.2414 
 204   0.0000       0.751227        20.4419 
 205   0.0000       0.753308        20.4986 
 206   0.0000       0.753338        20.4994 
 207   0.0000       0.761097        20.7105 
 208   0.0000       0.766938        20.8694 
 209   0.0000       0.780688        21.2436 
 210   0.0000       0.780776        21.2460 
 211   0.0000       0.799312        21.7504 
 212   0.0000       0.799339        21.7511 
 213   0.0000       0.806451        21.9446 
 214   0.0000       0.820317        22.3220 
 215   0.0000       0.823321        22.4037 
 216   0.0000       0.823376        22.4052 
 217   0.0000       0.864123        23.5140 
 218   0.0000       0.879295        23.9268 
 219   0.0000       0.879332        23.9278 
 220   0.0000       0.911081        24.7918 
 221   0.0000       0.927949        25.2508 
 222   0.0000       0.933626        25.4053 
 223   0.0000       0.934623        25.4324 
 224   0.0000       0.934631        25.4326 
 225   0.0000       0.947017        25.7696 
 226   0.0000       0.960664        26.1410 
 227   0.0000       0.971242        26.4288 
 228   0.0000       0.971291        26.4302 
 229   0.0000       1.004909        27.3450 
 230   0.0000       1.017645        27.6915 
 231   0.0000       1.026972        27.9453 
 232   0.0000       1.026988        27.9458 
 233   0.0000       1.074152        29.2292 
 234   0.0000       1.100058        29.9341 
 235   0.0000       1.117526        30.4094 
 236   0.0000       1.119316        30.4581 
 237   0.0000       1.119386        30.4600 
 238   0.0000       1.146738        31.2043 
 239   0.0000       1.146778        31.2054 
 240   0.0000       1.165220        31.7072 
 241   0.0000       1.172704        31.9109 
 242   0.0000       1.216993        33.1161 
 243   0.0000       1.217948        33.1421 
 244   0.0000       1.249853        34.0102 
 245   0.0000       1.249876        34.0109 
 246   0.0000       1.250936        34.0397 
 247   0.0000       1.267373        34.4870 
 248   0.0000       1.377511        37.4840 
 249   0.0000       1.384068        37.6624 
 250   0.0000       1.384077        37.6626 
 251   0.0000       1.457881        39.6710 
 252   0.0000       1.473318        40.0910 
 253   0.0000       1.475059        40.1384 
 254   0.0000       1.475081        40.1390 
 255   0.0000       1.495729        40.7009 
 256   0.0000       1.522576        41.4314 
 257   0.0000       1.537143        41.8278 
 258   0.0000       1.551319        42.2135 
 259   0.0000       1.553283        42.2670 
 260   0.0000       1.553308        42.2677 
 261   0.0000       1.561001        42.4770 
 262   0.0000       1.563982        42.5581 
 263   0.0000       1.564001        42.5586 
 264   0.0000       1.574426        42.8423 
 265   0.0000       1.575134        42.8616 
 266   0.0000       1.589354        43.2485 
 267   0.0000       1.589374        43.2491 
 268   0.0000       1.595165        43.4067 
 269   0.0000       1.615972        43.9728 
 270   0.0000       1.616119        43.9768 
 271   0.0000       1.629293        44.3353 
 272   0.0000       1.630345        44.3640 
 273   0.0000       1.630440        44.3665 
 274   0.0000       1.641911        44.6787 
 275   0.0000       1.641933        44.6793 
 276   0.0000       1.643796        44.7300 
 277   0.0000       1.682650        45.7872 
 278   0.0000       1.682784        45.7909 
 279   0.0000       1.684570        45.8395 
 280   0.0000       1.701661        46.3046 
 281   0.0000       1.703377        46.3512 
 282   0.0000       1.750814        47.6421 
 283   0.0000       1.755799        47.7777 
 284   0.0000       1.755825        47.7784 
 285   0.0000       1.801642        49.0252 
 286   0.0000       1.803196        49.0674 
 287   0.0000       1.874688        51.0129 
 288   0.0000       1.878886        51.1271 
 289   0.0000       1.905304        51.8460 
 290   0.0000       1.905330        51.8467 
 291   0.0000       1.937113        52.7115 
 292   0.0000       1.937223        52.7145 
 293   0.0000       1.965127        53.4738 
 294   0.0000       1.997571        54.3567 
 295   0.0000       1.997577        54.3568 
 296   0.0000       2.004429        54.5433 
 297   0.0000       2.066912        56.2435 
 298   0.0000       2.069388        56.3109 
 299   0.0000       2.080849        56.6228 
 300   0.0000       2.082813        56.6762 
 301   0.0000       2.082852        56.6773 
 302   0.0000       2.099973        57.1432 
 303   0.0000       2.101221        57.1771 
 304   0.0000       2.101234        57.1775 
 305   0.0000       2.195188        59.7341 
 306   0.0000       2.219348        60.3915 
 307   0.0000       2.219407        60.3931 
 308   0.0000       2.260582        61.5136 
 309   0.0000       2.274085        61.8810 
 310   0.0000       2.291814        62.3634 
 311   0.0000       2.291905        62.3659 
 312   0.0000       2.301922        62.6385 
 313   0.0000       2.390805        65.0571 
 314   0.0000       2.474975        67.3475 
 315   0.0000       2.474998        67.3481 
 316   0.0000       2.477233        67.4089 
 317   0.0000       2.491053        67.7850 
 318   0.0000       2.508977        68.2727 
 319   0.0000       2.512503        68.3687 
 320   0.0000       2.523962        68.6805 
 321   0.0000       2.523989        68.6812 
 322   0.0000       2.572615        70.0044 
 323   0.0000       2.572656        70.0055 
 324   0.0000       2.631957        71.6192 
 325   0.0000       2.634221        71.6808 
 326   0.0000       2.634223        71.6808 
 327   0.0000       2.639313        71.8194 
 328   0.0000       2.646816        72.0235 
 329   0.0000       2.650345        72.1195 
 330   0.0000       2.654176        72.2238 
 331   0.0000       2.654198        72.2244 
 332   0.0000       2.668711        72.6193 
 333   0.0000       2.674524        72.7775 
 334   0.0000       2.713593        73.8406 
 335   0.0000       2.737257        74.4846 
 336   0.0000       2.737298        74.4857 
 337   0.0000       2.767383        75.3043 
 338   0.0000       2.772475        75.4429 
 339   0.0000       2.773133        75.4608 
 340   0.0000       2.773153        75.4613 
 341   0.0000       2.779920        75.6455 
 342   0.0000       2.799332        76.1737 
 343   0.0000       2.799367        76.1747 
 344   0.0000       2.812776        76.5395 
 345   0.0000       2.822699        76.8095 
 346   0.0000       2.822709        76.8098 
 347   0.0000       2.851338        77.5889 
 348   0.0000       2.892946        78.7211 
 349   0.0000       2.893482        78.7357 
 350   0.0000       2.897647        78.8490 
 351   0.0000       2.897836        78.8541 
 352   0.0000       2.915503        79.3349 
 353   0.0000       2.915512        79.3351 
 354   0.0000       2.953729        80.3750 
 355   0.0000       2.953768        80.3761 
 356   0.0000       2.958970        80.5177 
 357   0.0000       2.998633        81.5970 
 358   0.0000       2.998710        81.5990 
 359   0.0000       3.007765        81.8454 
 360   0.0000       3.016908        82.0942 
 361   0.0000       3.057158        83.1895 
 362   0.0000       3.061292        83.3020 
 363   0.0000       3.061341        83.3033 
 364   0.0000       3.105148        84.4954 
 365   0.0000       3.113759        84.7297 
 366   0.0000       3.113845        84.7320 
 367   0.0000       3.131105        85.2017 
 368   0.0000       3.146181        85.6119 
 369   0.0000       3.146207        85.6126 
 370   0.0000       3.178435        86.4896 
 371   0.0000       3.198588        87.0380 
 372   0.0000       3.208856        87.3174 
 373   0.0000       3.208872        87.3179 
 374   0.0000       3.236035        88.0570 
 375   0.0000       3.245125        88.3043 
 376   0.0000       3.258695        88.6736 
 377   0.0000       3.335712        90.7693 
 378   0.0000       3.335760        90.7707 
 379   0.0000       3.363242        91.5185 
 380   0.0000       3.371411        91.7407 
 381   0.0000       3.422719        93.1369 
 382   0.0000       3.446826        93.7929 
 383   0.0000       3.468894        94.3934 
 384   0.0000       3.479103        94.6712 
 385   0.0000       3.479105        94.6712 
 386   0.0000       3.535375        96.2024 
 387   0.0000       3.535409        96.2034 
 388   0.0000       3.537920        96.2717 
 389   0.0000       3.555902        96.7610 
 390   0.0000       3.593067        97.7723 
 391   0.0000       3.593076        97.7726 
 392   0.0000       3.598851        97.9297 
 393   0.0000       3.626865        98.6920 
 394   0.0000       3.626983        98.6952 
 395   0.0000       3.638441        99.0070 
 396   0.0000       3.705828       100.8407 
 397   0.0000       4.037572       109.8679 
 398   0.0000       4.047393       110.1352 
 399   0.0000       4.047406       110.1355 
 400   0.0000       4.179043       113.7175 
 401   0.0000       4.181158       113.7751 
 402   0.0000       4.225378       114.9784 
 403   0.0000       4.225418       114.9795 
 404   0.0000       4.249872       115.6449 
 405   0.0000       4.379687       119.1773 
 406   0.0000       4.409395       119.9857 
 407   0.0000       4.409413       119.9862 
 408   0.0000       4.424047       120.3844 
 409   0.0000       4.434038       120.6563 
 410   0.0000       4.475300       121.7791 
 411   0.0000       4.586344       124.8008 
 412   0.0000       4.613642       125.5436 
 413   0.0000       4.613762       125.5468 
 414   0.0000       4.699417       127.8776 
 415   0.0000       4.863932       132.3543 
 416   0.0000       4.863964       132.3552 
 417   0.0000       4.907060       133.5279 
 418   0.0000       4.907120       133.5295 
 419   0.0000       4.919469       133.8656 
 420   0.0000       4.919471       133.8656 
 421   0.0000       4.919762       133.8735 
 422   0.0000       4.919923       133.8779 
 423   0.0000       4.919967       133.8791 
 424   0.0000       4.920969       133.9064 
 425   0.0000       4.921013       133.9076 
 426   0.0000       4.923782       133.9829 
 427   0.0000       5.300002       144.2204 
 428   0.0000       5.328349       144.9918 
 429   0.0000       5.333704       145.1375 
 430   0.0000       5.337427       145.2388 
 431   0.0000       5.342383       145.3736 
 432   0.0000       5.342998       145.3904 
 433   0.0000       5.343011       145.3907 
 434   0.0000       5.343882       145.4144 
 435   0.0000       5.343886       145.4145 
 436   0.0000       5.366928       146.0415 
 437   0.0000       5.387099       146.5904 
 438   0.0000       5.437964       147.9745 
 439   0.0000       5.448044       148.2488 
 440   0.0000       6.043053       164.4398 
 441   0.0000       6.050543       164.6437 
 442   0.0000       6.050548       164.6438 
 443   0.0000       6.083926       165.5520 
 444   0.0000       6.100580       166.0052 
 445   0.0000       6.100598       166.0057 
 446   0.0000       6.110539       166.2762 
 447   0.0000       6.114523       166.3846 
 448   0.0000       6.123796       166.6370 
 449   0.0000       6.129293       166.7865 
 450   0.0000       6.129311       166.7870 
 451   0.0000       6.149438       167.3347 
 452   0.0000       6.213172       169.0690 
 453   0.0000       6.217889       169.1974 
 454   0.0000       6.217909       169.1979 
 455   0.0000       6.231313       169.5626 
 456   0.0000       6.247076       169.9916 
 457   0.0000       6.247423       170.0010 
 458   0.0000       6.248097       170.0194 
 459   0.0000       6.248135       170.0204 
 460   0.0000       6.273651       170.7147 
 461   0.0000       6.281152       170.9188 
 462   0.0000       6.356904       172.9801 
 463   0.0000       6.356908       172.9802 
 464   0.0000       6.455048       175.6508 
 465   0.0000       6.471898       176.1093 
 466   0.0000       6.479251       176.3094 
 467   0.0000       6.480377       176.3400 
 468   0.0000       6.480400       176.3406 
 469   0.0000       6.652123       181.0135 
 470   0.0000       6.652146       181.0141 
 471   0.0000       6.654100       181.0673 
 472   0.0000       6.660459       181.2403 
 473   0.0000       6.660468       181.2406 
 474   0.0000       6.669554       181.4878 
 475   0.0000       6.677019       181.6909 
 476   0.0000       6.682245       181.8331 
 477   0.0000       6.682250       181.8333 
 478   0.0000       6.683542       181.8684 
 479   0.0000       6.850679       186.4165 
 480   0.0000       6.850713       186.4174 
 481   0.0000       7.012436       190.8181 
 482   0.0000       7.020386       191.0344 
 483   0.0000       7.020397       191.0347 
 484   0.0000       7.024456       191.1452 
 485   0.0000       7.026462       191.1998 
 486   0.0000       7.041697       191.6143 
 487   0.0000       7.195291       195.7938 
 488   0.0000      22.729498       618.5011 
 489   0.0000      22.747653       618.9951 
 490   0.0000      22.781534       619.9171 
 491   0.0000      22.781633       619.9197 
 492   0.0000      22.828946       621.2072 
 493   0.0000      24.894424       677.4117 
 494   0.0000      32.522772       884.9896 
 495   0.0000      43.893216      1194.3951 
 496   0.0000      43.974194      1196.5987 
 497   0.0000      43.974219      1196.5993 
 498   0.0000      44.029622      1198.1069 
 499   0.0000      44.084748      1199.6070 
 500   0.0000      44.244513      1203.9544 
 501   0.0000      84.275707      2293.2586 

                    ********************************
                    * MULLIKEN POPULATION ANALYSIS *
                    ********************************

-----------------------
MULLIKEN ATOMIC CHARGES
-----------------------
   0 Mo:    0.240421
   1 C :    0.259457
   2 C :    0.260598
   3 C :    0.259390
   4 C :    0.260559
   5 O :   -0.092978
   6 O :   -0.093000
   7 O :   -0.092978
   8 O :   -0.093012
   9 C :    0.195419
  10 N :    0.108855
  11 O :   -0.052451
  12 O :   -0.160280
Sum of atomic charges:    1.0000000

--------------------------------
MULLIKEN REDUCED ORBITAL CHARGES
--------------------------------
  0 Mos       :     2.552779  s :     2.552779
      pz      :     1.992987  p :     6.557824
      px      :     2.283428
      py      :     2.281410
      dz2     :     0.431980  d :     4.627473
      dxz     :     1.140695
      dyz     :     1.115718
      dx2y2   :     0.523077
      dxy     :     1.416004
      f0      :     0.006093  f :     0.021503
      f+1     :     0.003163
      f-1     :     0.003161
      f+2     :     0.001275
      f-2     :     0.000148
      f+3     :     0.003813
      f-3     :     0.003850
  1 C s       :     3.545728  s :     3.545728
      pz      :     0.601447  p :     2.106312
      px      :     0.616512
      py      :     0.888353
      dz2     :     0.005043  d :     0.071571
      dxz     :     0.002698
      dyz     :     0.026926
      dx2y2   :     0.006164
      dxy     :     0.030740
      f0      :     0.001923  f :     0.016932
      f+1     :     0.000299
      f-1     :     0.002329
      f+2     :     0.003564
      f-2     :     0.000418
      f+3     :     0.005340
      f-3     :     0.003060
  2 C s       :     3.545049  s :     3.545049
      pz      :     0.600065  p :     2.105969
      px      :     0.889585
      py      :     0.616320
      dz2     :     0.004284  d :     0.071450
      dxz     :     0.028025
      dyz     :     0.002509
      dx2y2   :     0.006182
      dxy     :     0.030449
      f0      :     0.002039  f :     0.016934
      f+1     :     0.002109
      f-1     :     0.000332
      f+2     :     0.003601
      f-2     :     0.000320
      f+3     :     0.003146
      f-3     :     0.005387
  3 C s       :     3.545593  s :     3.545593
      pz      :     0.611549  p :     2.106431
      px      :     0.616114
      py      :     0.878767
      dz2     :     0.004428  d :     0.071654
      dxz     :     0.003390
      dyz     :     0.029238
      dx2y2   :     0.004638
      dxy     :     0.029961
      f0      :     0.001927  f :     0.016933
      f+1     :     0.000295
      f-1     :     0.002328
      f+2     :     0.003565
      f-2     :     0.000430
      f+3     :     0.005330
      f-3     :     0.003058
  4 C s       :     3.544988  s :     3.544988
      pz      :     0.607669  p :     2.106022
      px      :     0.881371
      py      :     0.616983
      dz2     :     0.003790  d :     0.071496
      dxz     :     0.029761
      dyz     :     0.003062
      dx2y2   :     0.004768
      dxy     :     0.030115
      f0      :     0.002041  f :     0.016935
      f+1     :     0.002109
      f-1     :     0.000330
      f+2     :     0.003604
      f-2     :     0.000326
      f+3     :     0.003140
      f-3     :     0.005385
  5 O s       :     3.878166  s :     3.878166
      pz      :     1.427214  p :     4.160512
      px      :     1.448253
      py      :     1.285046
      dz2     :     0.003423  d :     0.052537
      dxz     :     0.000502
      dyz     :     0.020209
      dx2y2   :     0.007980
      dxy     :     0.020423
      f0      :     0.000225  f :     0.001762
      f+1     :     0.000035
      f-1     :     0.000193
      f+2     :     0.000419
      f-2     :     0.000045
      f+3     :     0.000653
      f-3     :     0.000193
  6 O s       :     3.878041  s :     3.878041
      pz      :     1.428959  p :     4.160589
      px      :     1.283960
      py      :     1.447670
      dz2     :     0.002988  d :     0.052609
      dxz     :     0.020599
      dyz     :     0.000373
      dx2y2   :     0.008098
      dxy     :     0.020551
      f0      :     0.000246  f :     0.001762
      f+1     :     0.000154
      f-1     :     0.000039
      f+2     :     0.000434
      f-2     :     0.000032
      f+3     :     0.000202
      f-3     :     0.000654
  7 O s       :     3.878168  s :     3.878168
      pz      :     1.428471  p :     4.160518
      px      :     1.448177
      py      :     1.283870
      dz2     :     0.003404  d :     0.052530
      dxz     :     0.000486
      dyz     :     0.019858
      dx2y2   :     0.008302
      dxy     :     0.020480
      f0      :     0.000226  f :     0.001762
      f+1     :     0.000035
      f-1     :     0.000191
      f+2     :     0.000420
      f-2     :     0.000044
      f+3     :     0.000653
      f-3     :     0.000193
  8 O s       :     3.878042  s :     3.878042
      pz      :     1.429904  p :     4.160603
      px      :     1.282899
      py      :     1.447801
      dz2     :     0.002983  d :     0.052605
      dxz     :     0.020369
      dyz     :     0.000317
      dx2y2   :     0.008393
      dxy     :     0.020543
      f0      :     0.000246  f :     0.001762
      f+1     :     0.000153
      f-1     :     0.000039
      f+2     :     0.000435
      f-2     :     0.000031
      f+3     :     0.000201
      f-3     :     0.000656
  9 C s       :     3.607590  s :     3.607590
      pz      :     0.882606  p :     2.103973
      px      :     0.609984
      py      :     0.611383
      dz2     :     0.007259  d :     0.075766
      dxz     :     0.030479
      dyz     :     0.030024
      dx2y2   :     0.003063
      dxy     :     0.004941
      f0      :     0.005100  f :     0.017251
      f+1     :     0.005508
      f-1     :     0.005479
      f+2     :     0.000560
      f-2     :     0.000576
      f+3     :     0.000014
      f-3     :     0.000014
 10 N s       :     3.921846  s :     3.921846
      pz      :     0.883225  p :     2.908600
      px      :     1.013083
      py      :     1.012292
      dz2     :    -0.006459  d :     0.051103
      dxz     :     0.024699
      dyz     :     0.024179
      dx2y2   :     0.004749
      dxy     :     0.003934
      f0      :     0.002778  f :     0.009596
      f+1     :     0.003104
      f-1     :     0.003083
      f+2     :     0.000307
      f-2     :     0.000310
      f+3     :     0.000006
      f-3     :     0.000006
 11 O s       :     3.857425  s :     3.857425
      pz      :     1.285901  p :     4.140841
      px      :     1.427843
      py      :     1.427097
      dz2     :     0.011871  d :     0.052421
      dxz     :     0.019756
      dyz     :     0.019612
      dx2y2   :     0.000589
      dxy     :     0.000592
      f0      :     0.000358  f :     0.001764
      f+1     :     0.000647
      f-1     :     0.000635
      f+2     :     0.000062
      f-2     :     0.000059
      f+3     :     0.000001
      f-3     :     0.000001
 12 O s       :     3.978210  s :     3.978210
      pz      :     1.210416  p :     4.108940
      px      :     1.449907
      py      :     1.448616
      dz2     :     0.014902  d :     0.069148
      dxz     :     0.026384
      dyz     :     0.026180
      dx2y2   :     0.000728
      dxy     :     0.000953
      f0      :     0.001152  f :     0.003982
      f+1     :     0.001298
      f-1     :     0.001289
      f+2     :     0.000121
      f-2     :     0.000118
      f+3     :     0.000002
      f-3     :     0.000002


                     *******************************
                     * LOEWDIN POPULATION ANALYSIS *
                     *******************************

----------------------
LOEWDIN ATOMIC CHARGES
----------------------
   0 Mo:    0.699945
   1 C :   -0.149695
   2 C :   -0.149677
   3 C :   -0.149714
   4 C :   -0.149695
   5 O :    0.175733
   6 O :    0.175739
   7 O :    0.175790
   8 O :    0.175781
   9 C :   -0.123414
  10 N :   -0.089175
  11 O :    0.197722
  12 O :    0.210661

-------------------------------
LOEWDIN REDUCED ORBITAL CHARGES
-------------------------------
  0 Mos       :     1.890325  s :     1.890325
      pz      :     2.138788  p :     6.505210
      px      :     2.183324
      py      :     2.183099
      dz2     :     0.752222  d :     4.858939
      dxz     :     1.033931
      dyz     :     1.022802
      dx2y2   :     0.804976
      dxy     :     1.245007
      f0      :     0.013379  f :     0.045582
      f+1     :     0.006549
      f-1     :     0.006538
      f+2     :     0.002433
      f-2     :     0.000250
      f+3     :     0.008172
      f-3     :     0.008260
  1 C s       :     2.996878  s :     2.996878
      pz      :     0.621287  p :     2.349581
      px      :     0.624793
      py      :     1.103501
      dz2     :     0.081984  d :     0.715498
      dxz     :     0.015774
      dyz     :     0.201680
      dx2y2   :     0.193506
      dxy     :     0.222555
      f0      :     0.009923  f :     0.087738
      f+1     :     0.001516
      f-1     :     0.012673
      f+2     :     0.017824
      f-2     :     0.001941
      f+3     :     0.026638
      f-3     :     0.017223
  2 C s       :     2.996876  s :     2.996876
      pz      :     0.616886  p :     2.349569
      px      :     1.106909
      py      :     0.625773
      dz2     :     0.079929  d :     0.715494
      dxz     :     0.201988
      dyz     :     0.014189
      dx2y2   :     0.195226
      dxy     :     0.224162
      f0      :     0.010427  f :     0.087738
      f+1     :     0.011706
      f-1     :     0.001691
      f+2     :     0.017876
      f-2     :     0.001433
      f+3     :     0.017673
      f-3     :     0.026933
  3 C s       :     2.996807  s :     2.996807
      pz      :     0.623287  p :     2.349596
      px      :     0.624754
      py      :     1.101555
      dz2     :     0.082083  d :     0.715572
      dxz     :     0.015507
      dyz     :     0.202412
      dx2y2   :     0.192840
      dxy     :     0.222730
      f0      :     0.009908  f :     0.087740
      f+1     :     0.001509
      f-1     :     0.012704
      f+2     :     0.017814
      f-2     :     0.001963
      f+3     :     0.026618
      f-3     :     0.017224
  4 C s       :     2.996820  s :     2.996820
      pz      :     0.618408  p :     2.349580
      px      :     1.105358
      py      :     0.625814
      dz2     :     0.079986  d :     0.715556
      dxz     :     0.202485
      dyz     :     0.014078
      dx2y2   :     0.194491
      dxy     :     0.224516
      f0      :     0.010413  f :     0.087740
      f+1     :     0.011735
      f-1     :     0.001684
      f+2     :     0.017882
      f-2     :     0.001438
      f+3     :     0.017643
      f-3     :     0.026945
  5 O s       :     3.401335  s :     3.401335
      pz      :     1.300902  p :     4.222833
      px      :     1.311423
      py      :     1.610508
      dz2     :     0.028023  d :     0.193089
      dxz     :     0.001026
      dyz     :     0.040377
      dx2y2   :     0.084779
      dxy     :     0.038884
      f0      :     0.000623  f :     0.007011
      f+1     :     0.000082
      f-1     :     0.001355
      f+2     :     0.001119
      f-2     :     0.000100
      f+3     :     0.001462
      f-3     :     0.002270
  6 O s       :     3.401333  s :     3.401333
      pz      :     1.298087  p :     4.222831
      px      :     1.612714
      py      :     1.312030
      dz2     :     0.028582  d :     0.193086
      dxz     :     0.038469
      dyz     :     0.000731
      dx2y2   :     0.085600
      dxy     :     0.039704
      f0      :     0.000604  f :     0.007010
      f+1     :     0.001386
      f-1     :     0.000094
      f+2     :     0.001042
      f-2     :     0.000072
      f+3     :     0.002303
      f-3     :     0.001510
  7 O s       :     3.401313  s :     3.401313
      pz      :     1.301587  p :     4.222800
      px      :     1.311414
      py      :     1.609800
      dz2     :     0.027787  d :     0.193086
      dxz     :     0.000980
      dyz     :     0.040691
      dx2y2   :     0.084680
      dxy     :     0.038948
      f0      :     0.000621  f :     0.007011
      f+1     :     0.000082
      f-1     :     0.001359
      f+2     :     0.001114
      f-2     :     0.000099
      f+3     :     0.001464
      f-3     :     0.002272
  8 O s       :     3.401317  s :     3.401317
      pz      :     1.298613  p :     4.222807
      px      :     1.612186
      py      :     1.312008
      dz2     :     0.028400  d :     0.193084
      dxz     :     0.038736
      dyz     :     0.000677
      dx2y2   :     0.085547
      dxy     :     0.039724
      f0      :     0.000602  f :     0.007011
      f+1     :     0.001390
      f-1     :     0.000094
      f+2     :     0.001039
      f-2     :     0.000070
      f+3     :     0.002307
      f-3     :     0.001508
  9 C s       :     2.992710  s :     2.992710
      pz      :     1.101930  p :     2.341973
      px      :     0.618745
      py      :     0.621298
      dz2     :     0.250715  d :     0.700427
      dxz     :     0.202514
      dyz     :     0.203372
      dx2y2   :     0.025425
      dxy     :     0.018402
      f0      :     0.028274  f :     0.088304
      f+1     :     0.027396
      f-1     :     0.027360
      f+2     :     0.002546
      f-2     :     0.002628
      f+3     :     0.000049
      f-3     :     0.000050
 10 N s       :     3.178524  s :     3.178524
      pz      :     1.222747  p :     3.089416
      px      :     0.932576
      py      :     0.934093
      dz2     :     0.249983  d :     0.773622
      dxz     :     0.241277
      dyz     :     0.241386
      dx2y2   :     0.022131
      dxy     :     0.018844
      f0      :     0.016133  f :     0.047613
      f+1     :     0.014365
      f-1     :     0.014397
      f+2     :     0.001323
      f-2     :     0.001350
      f+3     :     0.000022
      f-3     :     0.000023
 11 O s       :     3.400225  s :     3.400225
      pz      :     1.606086  p :     4.205442
      px      :     1.298861
      py      :     1.300495
      dz2     :     0.109589  d :     0.189617
      dxz     :     0.038128
      dyz     :     0.039330
      dx2y2   :     0.001263
      dxy     :     0.001308
      f0      :     0.003417  f :     0.006994
      f+1     :     0.001621
      f-1     :     0.001686
      f+2     :     0.000130
      f-2     :     0.000138
      f+3     :     0.000002
      f-3     :     0.000002
 12 O s       :     3.405345  s :     3.405345
      pz      :     1.473429  p :     4.069643
      px      :     1.297644
      py      :     1.298571
      dz2     :     0.129966  d :     0.298450
      dxz     :     0.080981
      dyz     :     0.081786
      dx2y2   :     0.002833
      dxy     :     0.002884
      f0      :     0.005915  f :     0.015901
      f+1     :     0.004561
[...]
     24      -0.015701   0.049228   0.389492   0.336738   0.366765  -0.014515
     25      -0.216683   0.069260  -0.022503  -0.025410  -0.023457   0.013313
     26      -0.031434   0.005580  -0.068255   0.030178   0.021271   0.102546
     27      -0.003443   0.038028   0.252722  -0.001006   0.001271   0.433738
     28      -0.000842   0.268386  -0.050077  -0.002582   0.002655   0.461356
     29      -0.000655   0.044049   0.024102  -0.000038  -0.009906   0.122192
     30       0.003026  -0.048889  -0.306010   0.003282   0.007128  -0.025423
     31      -0.001503  -0.307721   0.055920   0.004692   0.002278  -0.027768
     32       0.000188  -0.049414  -0.030211   0.002273  -0.034961  -0.007096
     33       0.001570  -0.016193  -0.109252   0.000450   0.001661  -0.138575
     34       0.000290  -0.115978   0.021705   0.000981   0.001307  -0.147583
     35       0.000127  -0.019399  -0.009639   0.000757  -0.012572  -0.037915
     36      -0.002039   0.031299   0.197603  -0.002232   0.001362  -0.018824
     37       0.001033   0.199595  -0.036580  -0.003014   0.004924  -0.019669
     38      -0.000077   0.031993   0.019751   0.000110  -0.024483  -0.005178
                 24         25         26         27         28         29    
      0       0.014306  -0.000216  -0.000267   0.001747  -0.073832   0.006980
      1      -0.013344   0.000410  -0.000048   0.002147  -0.005494  -0.073506
      2      -0.000648   0.000037   0.000225  -0.014553  -0.009781  -0.009513
      3       0.031635   0.475697   0.055598  -0.049081   0.608642  -0.102966
      4      -0.056809  -0.036117   0.072370  -0.038729  -0.047706   0.003309
      5       0.309752   0.051815  -0.465999   0.386312   0.086142   0.091707
      6       0.053126   0.027158  -0.064524  -0.032480   0.003679   0.036011
      7      -0.006989   0.469624  -0.068672  -0.054776   0.075853   0.614171
      8      -0.374034   0.072214   0.465777   0.392347   0.118379   0.074725
      9       0.107051  -0.471216   0.059972  -0.051466   0.615590  -0.081392
     10       0.028121   0.034065   0.060092  -0.069881  -0.040437   0.032240
     11      -0.293956  -0.056219  -0.472717   0.383146   0.055082  -0.112721
     12      -0.037468  -0.027692  -0.049947  -0.063000   0.028581   0.031722
     13      -0.109610  -0.474313  -0.064887  -0.052400   0.106662   0.606253
     14       0.360927  -0.068709   0.464448   0.387694  -0.085986   0.104845
     15      -0.015436  -0.146298  -0.018091   0.016861  -0.191398   0.032190
     16       0.012728   0.011238  -0.024024   0.043312   0.016792   0.010762
     17      -0.101601  -0.015950   0.151448  -0.113393  -0.025728  -0.019584
     18      -0.008357  -0.008321   0.020622   0.041708   0.011626  -0.013313
     19       0.005667  -0.144323   0.022271   0.014302  -0.026014  -0.192789
     20       0.122389  -0.022303  -0.151490  -0.116438  -0.028279  -0.024925
     21      -0.039777   0.144895  -0.019400   0.014012  -0.193362   0.027210
     22      -0.015976  -0.010874  -0.019700  -0.010052   0.015010   0.004091
     23       0.093202   0.017348   0.153568  -0.121718  -0.018146   0.029980
     24       0.020309   0.008251   0.016710  -0.012238   0.005165  -0.011933
     25       0.038692   0.145906   0.021081   0.018278  -0.033479  -0.190697
     26      -0.115007   0.021112  -0.150969  -0.122019   0.021156  -0.032134
     27      -0.471677  -0.000345   0.002796  -0.006406   0.003117  -0.000706
     28       0.441850   0.000795   0.003674  -0.010848  -0.000148   0.002657
     29       0.008659   0.000042   0.000611   0.064301   0.000612   0.000177
     30       0.028495   0.000038   0.000151   0.046888  -0.306085   0.027647
     31      -0.027014   0.000866   0.000308   0.050439  -0.023600  -0.306585
     32      -0.001246   0.000251   0.001399  -0.366124  -0.043144  -0.038635
     33       0.150690   0.000084  -0.000824  -0.009347   0.006299  -0.000453
     34      -0.141695  -0.000238  -0.000938  -0.010240   0.000566   0.006479
     35      -0.001360  -0.000060  -0.000537   0.072358   0.001140   0.000788
     36       0.020070  -0.000056  -0.000473   0.049455   0.126759  -0.011679
     37      -0.018384  -0.000460  -0.000607   0.057510   0.009996   0.126456
     38      -0.001165   0.000053   0.001324  -0.402516   0.015484   0.017580
                 30         31         32         33         34         35    
      0      -0.030068   0.108598   0.096019   0.000649  -0.000008  -0.000045
      1      -0.034400   0.093936  -0.109668   0.000698  -0.000073   0.000010
      2       0.243141   0.026823  -0.003982  -0.005089  -0.000004  -0.000011
      3       0.034778  -0.158947  -0.130148   0.002846  -0.032172   0.003880
      4       0.050756  -0.028110   0.050381   0.046526  -0.551916   0.040173
      5      -0.281078   0.076352  -0.109414   0.006551  -0.089337   0.006696
      6       0.046213  -0.046986  -0.029648   0.046951  -0.039211  -0.563875
      7       0.039650  -0.156926   0.133714  -0.003479   0.004531   0.043370
      8      -0.283115   0.073766   0.116475   0.004900  -0.004707  -0.070756
      9       0.033674  -0.135653  -0.155211  -0.002515  -0.031771   0.003325
     10       0.029132  -0.001510   0.022498  -0.046615  -0.561578   0.031939
     11      -0.284944  -0.117961   0.085568  -0.007317  -0.076243   0.004524
     12       0.023871  -0.022608  -0.005739  -0.046572  -0.033107  -0.553544
     13       0.041127  -0.129391   0.160270   0.003513   0.003921   0.039958
     14      -0.285005  -0.122038  -0.077806  -0.005597  -0.003072  -0.055006
     15      -0.009069   0.041969   0.038870  -0.002359   0.024123  -0.002505
     16      -0.001886  -0.024450   0.018267  -0.039338   0.415233  -0.030189
     17       0.081361  -0.021145   0.030311  -0.005850   0.068146  -0.005047
     18      -0.000029  -0.020134  -0.024606  -0.039689   0.029459   0.423889
     19      -0.012176   0.045676  -0.035710   0.002983  -0.003022  -0.032767
     20       0.081555  -0.019333  -0.031230  -0.004463   0.003656   0.054138
     21      -0.010250   0.036775   0.044609   0.002182   0.024043  -0.002121
     22      -0.021244  -0.030885   0.025108   0.039501   0.422542  -0.024127
     23       0.078676   0.023327  -0.014158   0.005874   0.056425  -0.003312
     24      -0.019516  -0.025469  -0.029826   0.039453   0.024985   0.416689
     25      -0.010665   0.039317  -0.041753  -0.002933  -0.002543  -0.029979
     26       0.079254   0.025544   0.013174   0.004424   0.002320   0.040473
     27      -0.003707  -0.203242  -0.180104  -0.006656   0.000075   0.000257
     28      -0.003256  -0.176142   0.205827  -0.008012   0.000372  -0.000135
     29       0.027671  -0.050962   0.008577   0.054142  -0.000234   0.000635
     30       0.061679  -0.609201  -0.539642  -0.094362  -0.000217  -0.001990
     31       0.071468  -0.527286   0.617539  -0.106477  -0.001899   0.000221
     32      -0.498854  -0.150331   0.019707   0.755718  -0.000461   0.000157
     33      -0.005104   0.056875   0.050372   0.007299  -0.000087  -0.000443
     34      -0.006515   0.049298  -0.057653   0.008804  -0.000527   0.000138
     35       0.042740   0.014259  -0.002149  -0.059579   0.000130  -0.000510
     36       0.069054   0.218105   0.193251   0.076298  -0.000046  -0.000216
     37       0.078027   0.188800  -0.221212   0.086074  -0.000267   0.000074
     38      -0.554203   0.053852  -0.006893  -0.611060   0.000076  -0.000298
                 36         37         38    
      0      -0.000001  -0.000028   0.000229
      1      -0.000004  -0.000014   0.000233
      2      -0.000002   0.000134  -0.001751
      3      -0.023461   0.017482  -0.015109
      4      -0.402409   0.301586  -0.259647
      5      -0.065467   0.050180  -0.042526
      6       0.390929   0.302254  -0.260720
      7      -0.030174  -0.023515   0.020159
      8       0.049360   0.039267  -0.033202
      9       0.022499  -0.017299   0.014857
     10       0.395463  -0.302084   0.260453
     11       0.053376  -0.039665   0.034886
     12      -0.407174  -0.305997   0.262720
     13       0.029439   0.021937  -0.018962
     14      -0.040123  -0.029055   0.025609
     15       0.017145  -0.012614   0.010766
     16       0.294739  -0.217189   0.184740
     17       0.048371  -0.035931   0.030234
     18      -0.285999  -0.217511   0.185392
     19       0.022135   0.016886  -0.014339
     20      -0.036520  -0.028059   0.023590
     21      -0.016517   0.012426  -0.010554
     22      -0.289570   0.217411  -0.185267
     23      -0.038674   0.028753  -0.024830
     24       0.298330   0.220273  -0.186889
     25      -0.021504  -0.015830   0.013485
     26       0.028972   0.021113  -0.018235
     27      -0.000031   0.063193   0.072795
     28      -0.000033   0.076291   0.087860
     29       0.000238  -0.515974  -0.594354
     30      -0.000036   0.003263  -0.013342
     31      -0.000017   0.003705  -0.015075
     32       0.000113  -0.026137   0.107019
     33       0.000018  -0.047026  -0.053434
     34       0.000023  -0.056769  -0.064513
     35      -0.000181   0.383968   0.436297
     36       0.000003  -0.003006   0.009063
     37       0.000008  -0.003385   0.010229
     38      -0.000093   0.024032  -0.072611


-----------
IR SPECTRUM
-----------

 Mode   freq       eps      Int      T**2         TX        TY        TZ
       cm**-1   L/(mol*cm) km/mol    a.u.
----------------------------------------------------------------------------
  6:     55.31   0.000004    0.02  0.000024  (-0.003855 -0.002957 -0.000804)
  7:     56.45   0.000003    0.02  0.000018  (-0.002613  0.003269  0.000196)
  8:     65.52   0.000000    0.00  0.000000  ( 0.000206 -0.000101  0.000061)
  9:     80.26   0.000000    0.00  0.000001  ( 0.000215 -0.000825 -0.000278)
 10:     81.08   0.000036    0.18  0.000138  (-0.008333 -0.008174 -0.001490)
 11:     81.32   0.000041    0.21  0.000157  ( 0.008679 -0.008984 -0.000935)
 12:     88.81   0.000343    1.73  0.001206  ( 0.006774  0.005719 -0.033571)
 13:     90.60   0.000218    1.10  0.000752  (-0.019895 -0.016936 -0.008310)
 14:     91.14   0.000214    1.08  0.000734  ( 0.017447 -0.020711  0.000784)
 15:    292.02   0.004087   20.65  0.004368  (-0.008000 -0.009106  0.064968)
 16:    315.56   0.000991    5.01  0.000980  ( 0.016787  0.025908  0.005204)
 17:    316.02   0.000984    4.97  0.000971  ( 0.024451 -0.019321  0.000344)
 18:    331.67   0.000001    0.01  0.000001  (-0.000901  0.000726 -0.000051)
 19:    334.64   0.008265   41.77  0.007707  ( 0.014210  0.085507  0.013917)
 20:    335.58   0.008415   42.53  0.007825  ( 0.086718 -0.015291  0.008441)
 21:    347.43   0.000006    0.03  0.000006  (-0.001473 -0.001842  0.000155)
 22:    362.96   0.000325    1.64  0.000280  ( 0.000926  0.003295 -0.016365)
 23:    421.60   0.000381    1.93  0.000282  ( 0.011234  0.012025  0.003382)
 24:    421.89   0.000384    1.94  0.000284  (-0.012302  0.011505  0.000459)
 25:    459.43   0.000000    0.00  0.000000  ( 0.000232 -0.000429 -0.000026)
 26:    466.58   0.000000    0.00  0.000000  ( 0.000188  0.000055 -0.000225)
 27:    494.16   0.001452    7.34  0.000917  (-0.003766 -0.004142  0.029757)
 28:    528.11   0.006591   33.31  0.003895  ( 0.061681  0.004639  0.008274)
 29:    528.49   0.006569   33.20  0.003879  (-0.005811  0.061513  0.007828)
 30:    586.49   0.017806   89.98  0.009474  ( 0.011747  0.013592 -0.095662)
 31:    645.89   0.006081   30.73  0.002938  (-0.040271 -0.034864 -0.010047)
 32:    646.41   0.006053   30.59  0.002922  (-0.035597  0.040653  0.001528)
 33:   1921.68   0.276864  1399.16  0.044960  (-0.025699 -0.029618  0.208381)
 34:   2165.21   0.248849  1257.58  0.035866  (-0.022908 -0.185709 -0.029208)
 35:   2165.22   0.249314  1259.93  0.035933  (-0.186768  0.026120 -0.019180)
 36:   2179.95   0.000060    0.30  0.000009  (-0.002658 -0.001175 -0.000417)
 37:   2218.79   0.030176  152.50  0.004244  ( 0.007569  0.009538 -0.063999)
 38:   2252.31   0.036732  185.63  0.005089  ( 0.008692  0.010152 -0.070077)

* The epsilon (eps) is given for a Dirac delta lineshape.
** The dipole moment derivative (T) already includes vibrational overlap.

The first frequency considered to be a vibration is 6
The total number of vibrations considered is 33


--------------------------
THERMOCHEMISTRY AT 298.15K
--------------------------

Temperature         ... 298.15 K
Pressure            ... 1.00 atm
Total Mass          ... 266.00 AMU

Throughout the following assumptions are being made:
  (1) The electronic state is orbitally nondegenerate
  (2) There are no thermally accessible electronically excited states
  (3) Hindered rotations indicated by low frequency modes are not
      treated as such but are treated as vibrations and this may
      cause some error
  (4) All equations used are the standard statistical mechanics
      equations for an ideal gas
  (5) All vibrations are strictly harmonic

freq.      55.31  E(vib)   ...       0.52 
freq.      56.45  E(vib)   ...       0.52 
freq.      65.52  E(vib)   ...       0.50 
freq.      80.26  E(vib)   ...       0.49 
freq.      81.08  E(vib)   ...       0.48 
freq.      81.32  E(vib)   ...       0.48 
freq.      88.81  E(vib)   ...       0.47 
freq.      90.60  E(vib)   ...       0.47 
freq.      91.14  E(vib)   ...       0.47 
freq.     292.02  E(vib)   ...       0.27 
freq.     315.56  E(vib)   ...       0.25 
freq.     316.02  E(vib)   ...       0.25 
freq.     331.67  E(vib)   ...       0.24 
freq.     334.64  E(vib)   ...       0.24 
freq.     335.58  E(vib)   ...       0.24 
freq.     347.43  E(vib)   ...       0.23 
freq.     362.96  E(vib)   ...       0.22 
freq.     421.60  E(vib)   ...       0.18 
freq.     421.89  E(vib)   ...       0.18 
freq.     459.43  E(vib)   ...       0.16 
freq.     466.58  E(vib)   ...       0.16 
freq.     494.16  E(vib)   ...       0.14 
freq.     528.11  E(vib)   ...       0.13 
freq.     528.49  E(vib)   ...       0.13 
freq.     586.49  E(vib)   ...       0.11 
freq.     645.89  E(vib)   ...       0.09 
freq.     646.41  E(vib)   ...       0.09 
freq.    1921.68  E(vib)   ...       0.00 
freq.    2165.21  E(vib)   ...       0.00 
freq.    2165.22  E(vib)   ...       0.00 
freq.    2179.95  E(vib)   ...       0.00 
freq.    2218.79  E(vib)   ...       0.00 
freq.    2252.31  E(vib)   ...       0.00 

------------
INNER ENERGY
------------

The inner energy is: U= E(el) + E(ZPE) + E(vib) + E(rot) + E(trans)
    E(el)   - is the total energy from the electronic structure calculation
              = E(kin-el) + E(nuc-el) + E(el-el) + E(nuc-nuc)
    E(ZPE)  - the the zero temperature vibrational energy from the frequency calculation
    E(vib)  - the the finite temperature correction to E(ZPE) due to population
              of excited vibrational states
    E(rot)  - is the rotational thermal energy
    E(trans)- is the translational thermal energy

Summary of contributions to the inner energy U:
Electronic energy                ...   -764.61995168 Eh
Zero point energy                ...      0.04881789 Eh      30.63 kcal/mol
Thermal vibrational correction   ...      0.01226831 Eh       7.70 kcal/mol
Thermal rotational correction    ...      0.00141627 Eh       0.89 kcal/mol
Thermal translational correction ...      0.00141627 Eh       0.89 kcal/mol
-----------------------------------------------------------------------
Total thermal energy                   -764.55603293 Eh


Summary of corrections to the electronic energy:
(perhaps to be used in another calculation)
Total thermal correction                  0.01510085 Eh       9.48 kcal/mol
Non-thermal (ZPE) correction              0.04881789 Eh      30.63 kcal/mol
-----------------------------------------------------------------------
Total correction                          0.06391875 Eh      40.11 kcal/mol


--------
ENTHALPY
--------

The enthalpy is H = U + kB*T
                kB is Boltzmann's constant
Total free energy                 ...   -764.55603293 Eh 
Thermal Enthalpy correction       ...      0.00094421 Eh       0.59 kcal/mol
-----------------------------------------------------------------------
Total Enthalpy                    ...   -764.55508872 Eh


Note: Only C1 symmetry has been detected, increase convergence thresholds 
      if your molecule has a higher symmetry. Symmetry factor of 1.0 is   
      used for the rotational entropy correction. 
 

Note: Rotational entropy computed according to Herzberg 
Infrared and Raman Spectra, Chapter V,1, Van Nostrand Reinhold, 1945 
Point Group:  C1, Symmetry Number:   1  
Rotational constants in cm-1:     0.019324     0.019312     0.018944 

Vibrational entropy computed according to the QRRHO of S. Grimme
Chem.Eur.J. 2012 18 9955


-------
ENTROPY
-------

The entropy contributions are T*S = T*(S(el)+S(vib)+S(rot)+S(trans))
     S(el)   - electronic entropy
     S(vib)  - vibrational entropy
     S(rot)  - rotational entropy
     S(trans)- translational entropy
The entropies will be listed as multiplied by the temperature to get
units of energy

Electronic entropy                ...      0.00000000 Eh      0.00 kcal/mol
Vibrational entropy               ...      0.02217974 Eh     13.92 kcal/mol
Rotational entropy                ...      0.01510966 Eh      9.48 kcal/mol
Translational entropy             ...      0.02025680 Eh     12.71 kcal/mol
-----------------------------------------------------------------------
Final entropy term                ...      0.05754619 Eh     36.11 kcal/mol

In case the symmetry of your molecule has not been determined correctly
or in case you have a reason to use a different symmetry number we print 
out the resulting rotational entropy values for sn=1,12 :
 --------------------------------------------------------
|  sn= 1 | S(rot)=       0.01510966 Eh      9.48 kcal/mol|
|  sn= 2 | S(rot)=       0.01445520 Eh      9.07 kcal/mol|
|  sn= 3 | S(rot)=       0.01407237 Eh      8.83 kcal/mol|
|  sn= 4 | S(rot)=       0.01380075 Eh      8.66 kcal/mol|
|  sn= 5 | S(rot)=       0.01359006 Eh      8.53 kcal/mol|
|  sn= 6 | S(rot)=       0.01341791 Eh      8.42 kcal/mol|
|  sn= 7 | S(rot)=       0.01327237 Eh      8.33 kcal/mol|
|  sn= 8 | S(rot)=       0.01314629 Eh      8.25 kcal/mol|
|  sn= 9 | S(rot)=       0.01303508 Eh      8.18 kcal/mol|
|  sn=10 | S(rot)=       0.01293560 Eh      8.12 kcal/mol|
|  sn=11 | S(rot)=       0.01284561 Eh      8.06 kcal/mol|
|  sn=12 | S(rot)=       0.01276346 Eh      8.01 kcal/mol|
 --------------------------------------------------------


-------------------
GIBBS FREE ENERGY
-------------------

The Gibbs free energy is G = H - T*S

Total enthalpy                    ...   -764.55508872 Eh 
Total entropy correction          ...     -0.05754619 Eh    -36.11 kcal/mol
-----------------------------------------------------------------------
Final Gibbs free energy         ...   -764.61263491 Eh

For completeness - the Gibbs free energy minus the electronic energy
G-E(el)                           ...      0.00731676 Eh      4.59 kcal/mol


Timings for individual modules:

Sum of individual times         ...     2446.815 sec (=  40.780 min)
GTO integral calculation        ...       17.835 sec (=   0.297 min)   0.7 %
SCF iterations                  ...      834.022 sec (=  13.900 min)  34.1 %
SCF Gradient evaluation         ...      223.243 sec (=   3.721 min)   9.1 %
Geometry relaxation             ...        0.456 sec (=   0.008 min)   0.0 %
Analytical frequency calculation...     1371.259 sec (=  22.854 min)  56.0 %
                             ****ORCA TERMINATED NORMALLY****
TOTAL RUN TIME: 0 days 0 hours 40 minutes 48 seconds 652 msec
