
                                 *****************
                                 * O   R   C   A *
                                 *****************

                                            #,                                       
                                            ###                                      
                                            ####                                     
                                            #####                                    
                                            ######                                   
                                           ########,                                 
                                     ,,################,,,,,                         
                               ,,#################################,,                 
                          ,,##########################################,,             
                       ,#########################################, ''#####,          
                    ,#############################################,,   '####,        
                  ,##################################################,,,,####,       
                ,###########''''           ''''###############################       
              ,#####''   ,,,,##########,,,,          '''####'''          '####       
            ,##' ,,,,###########################,,,                        '##       
           ' ,,###''''                  '''############,,,                           
         ,,##''                                '''############,,,,        ,,,,,,###''
      ,#''                                            '''#######################'''  
     '                                                          ''''####''''         
             ,#######,   #######,   ,#######,      ##                                
            ,#'     '#,  ##    ##  ,#'     '#,    #''#        ######   ,####,        
            ##       ##  ##   ,#'  ##            #'  '#       #        #'  '#        
            ##       ##  #######   ##           ,######,      #####,   #    #        
            '#,     ,#'  ##    ##  '#,     ,#' ,#      #,         ##   #,  ,#        
             '#######'   ##     ##  '#######'  #'      '#     #####' # '####'        



                  #######################################################
                  #                        -***-                        #
                  #          Department of theory and spectroscopy      #
                  #    Directorship and core code : Frank Neese         #
                  #        Max Planck Institute fuer Kohlenforschung    #
                  #                Kaiser Wilhelm Platz 1               #
                  #                 D-45470 Muelheim/Ruhr               #
                  #                      Germany                        #
                  #                                                     #
                  #                  All rights reserved                #
                  #                        -***-                        #
                  #######################################################



                         Program Version 5.0.4 -  RELEASE  -

 With contributions from (in alphabetic order):
   Daniel Aravena         : Magnetic Suceptibility
   Michael Atanasov       : Ab Initio Ligand Field Theory (pilot matlab implementation)
   Alexander A. Auer      : GIAO ZORA, VPT2 properties, NMR spectrum
   Ute Becker             : Parallelization
   Giovanni Bistoni       : ED, misc. LED, open-shell LED, HFLD
   Martin Brehm           : Molecular dynamics
   Dmytro Bykov           : SCF Hessian
   Vijay G. Chilkuri      : MRCI spin determinant printing, contributions to CSF-ICE
   Dipayan Datta          : RHF DLPNO-CCSD density
   Achintya Kumar Dutta   : EOM-CC, STEOM-CC
   Dmitry Ganyushin       : Spin-Orbit,Spin-Spin,Magnetic field MRCI
   Miquel Garcia          : C-PCM and meta-GGA Hessian, CC/C-PCM, Gaussian charge scheme
   Yang Guo               : DLPNO-NEVPT2, F12-NEVPT2, CIM, IAO-localization
   Andreas Hansen         : Spin unrestricted coupled pair/coupled cluster methods
   Benjamin Helmich-Paris : MC-RPA, TRAH-SCF, COSX integrals
   Lee Huntington         : MR-EOM, pCC
   Robert Izsak           : Overlap fitted RIJCOSX, COSX-SCS-MP3, EOM
   Marcus Kettner         : VPT2
   Christian Kollmar      : KDIIS, OOCD, Brueckner-CCSD(T), CCSD density, CASPT2, CASPT2-K
   Simone Kossmann        : Meta GGA functionals, TD-DFT gradient, OOMP2, MP2 Hessian
   Martin Krupicka        : Initial AUTO-CI
   Lucas Lang             : DCDCAS
   Marvin Lechner         : AUTO-CI (C++ implementation), FIC-MRCC
   Dagmar Lenk            : GEPOL surface, SMD
   Dimitrios Liakos       : Extrapolation schemes; Compound Job, initial MDCI parallelization
   Dimitrios Manganas     : Further ROCIS development; embedding schemes
   Dimitrios Pantazis     : SARC Basis sets
   Anastasios Papadopoulos: AUTO-CI, single reference methods and gradients
   Taras Petrenko         : DFT Hessian,TD-DFT gradient, ASA, ECA, R-Raman, ABS, FL, XAS/XES, NRVS
   Peter Pinski           : DLPNO-MP2, DLPNO-MP2 Gradient
   Christoph Reimann      : Effective Core Potentials
   Marius Retegan         : Local ZFS, SOC
   Christoph Riplinger    : Optimizer, TS searches, QM/MM, DLPNO-CCSD(T), (RO)-DLPNO pert. Triples
   Tobias Risthaus        : Range-separated hybrids, TD-DFT gradient, RPA, STAB
   Michael Roemelt        : Original ROCIS implementation
   Masaaki Saitow         : Open-shell DLPNO-CCSD energy and density
   Barbara Sandhoefer     : DKH picture change effects
   Avijit Sen             : IP-ROCIS
   Kantharuban Sivalingam : CASSCF convergence, NEVPT2, FIC-MRCI
   Bernardo de Souza      : ESD, SOC TD-DFT
   Georgi Stoychev        : AutoAux, RI-MP2 NMR, DLPNO-MP2 response
   Willem Van den Heuvel  : Paramagnetic NMR
   Boris Wezisla          : Elementary symmetry handling
   Frank Wennmohs         : Technical directorship


 We gratefully acknowledge several colleagues who have allowed us to
 interface, adapt or use parts of their codes:
   Stefan Grimme, W. Hujo, H. Kruse, P. Pracht,  : VdW corrections, initial TS optimization,
                  C. Bannwarth, S. Ehlert          DFT functionals, gCP, sTDA/sTD-DF
   Ed Valeev, F. Pavosevic, A. Kumar             : LibInt (2-el integral package), F12 methods
   Garnet Chan, S. Sharma, J. Yang, R. Olivares  : DMRG
   Ulf Ekstrom                                   : XCFun DFT Library
   Mihaly Kallay                                 : mrcc  (arbitrary order and MRCC methods)
   Jiri Pittner, Ondrej Demel                    : Mk-CCSD
   Frank Weinhold                                : gennbo (NPA and NBO analysis)
   Christopher J. Cramer and Donald G. Truhlar   : smd solvation model
   Lars Goerigk                                  : TD-DFT with DH, B97 family of functionals
   V. Asgeirsson, H. Jonsson                     : NEB implementation
   FAccTs GmbH                                   : IRC, NEB, NEB-TS, DLPNO-Multilevel, CI-OPT
                                                   MM, QMMM, 2- and 3-layer-ONIOM, Crystal-QMMM,
                                                   LR-CPCM, SF, NACMEs, symmetry and pop. for TD-DFT,
                                                   nearIR, NL-DFT gradient (VV10), updates on ESD,
                                                   ML-optimized integration grids
   S Lehtola, MJT Oliveira, MAL Marques          : LibXC Library
   Liviu Ungur et al                             : ANISO software


 Your calculation uses the libint2 library for the computation of 2-el integrals
 For citations please refer to: http://libint.valeyev.net

 Your ORCA version has been built with support for libXC version: 5.1.0
 For citations please refer to: https://tddft.org/programs/libxc/

 This ORCA versions uses:
   CBLAS   interface :  Fast vector & matrix operations
   LAPACKE interface :  Fast linear algebra routines
   Shared memory     :  Shared parallel matrices


================================================================================

cite the ECPs for Mo [Def2-ECP] as follows:
Ce-Yb(ecp-28): M. Dolg, H. Stoll, H.Preuss, J. Chem. Phys., 1989, 90, 1730-1734.
Y-Cd(ecp-28), Hf-Hg(ecp-46): D. Andrae,U. Haeussermann, M. Dolg, H. Stoll, H. Preuss, Theor. Chim. Acta, 1990, 77, 123-141.
In-Sb(ecp-28), Tl-Bi(ecp-46): B. Metz, H. Stoll, M. Dolg, J. Chem. Phys., 2000, 113, 2563-2569.
Te-Xe(ecp-28), Po-Rn(ecp-46): K. A. Peterson, D. Figgen, E. Goll, H. Stoll, M. Dolg, J. Chem. Phys., 2003, 119, 11113-11123.
Rb(ecp-28), Cs(ecp-46): T. Leininger, A. Nicklass, W. Kuechle, H. Stoll, M. Dolg, A. Bergner, Chem. Phys. Lett., 1996, 255, 274-280.
Sr(ecp-28), Ba(ecp-46): M. Kaupp, P. V. Schleyer, H. Stoll and H. Preuss, J. Chem. Phys., 1991, 94, 1360-1366.
La(ecp-46): M. Dolg, H. Stoll, A. Savin, H. Preuss, Theor. Chim. Acta, 1989, 75, 173-194.
Lu(ecp-28): X. Cao, M. Dolg, J. Chem. Phys., 2001, 115, 7348-7355.

ECP parameters for Mo [Def2-ECP] have been obtained from:
TURBOMOLE (7.0.2)

----- Orbital basis set information -----
Your calculation utilizes the basis: def2-TZVPD
   F. Weigend and R. Ahlrichs, Phys. Chem. Chem. Phys. 7, 3297 (2005).
   D. Rappoport and F. Furche, J. Chem. Phys. 133 134105 (2010).

----- AuxJ basis set information -----
Your calculation utilizes the auxiliary basis: def2/J
   F. Weigend, Phys. Chem. Chem. Phys. 8, 1057 (2006).

================================================================================
                                        WARNINGS
                       Please study these warnings very carefully!
================================================================================


WARNING: Geometry Optimization
  ===> : Switching off AutoStart
         For restart on a previous wavefunction, please use MOREAD

INFO   : the flag for use of the SHARK integral package has been found!

================================================================================
                                       INPUT FILE
================================================================================
NAME = MoCO6.inp
|  1> !B3LYP def2-TZVPD OPT FREQ TightSCF PAL8

|  2> 

|  3> %scf

|  4>   MaxIter 300

|  5> end

|  6> 

|  7> * xyz 0 1 

|  8> Mo        -1.16223        1.46231        0.00440

|  9> C         -1.14093        3.60205        0.19585

| 10> C          0.98556        1.43752        0.04741

| 11> C         -3.31010        1.48732       -0.03858

| 12> C         -1.18366       -0.67745       -0.18705

| 13> O         -1.12965        4.72557        0.29572

| 14> O          2.11331        1.42466        0.06986

| 15> O         -1.19503       -1.80094       -0.28692

| 16> O         -4.43774        1.50041       -0.06100

| 17> C         -1.11654        1.65584       -2.13477

| 18> C         -1.20787        1.26853        2.14358

| 19> O         -1.09237        1.75804       -3.25788

| 20> O         -1.23196        1.16609        3.26663

| 21> **                         ****END OF INPUT****
================================================================================

                       *****************************
                       * Geometry Optimization Run *
                       *****************************

Geometry optimization settings:
Update method            Update   .... BFGS
Choice of coordinates    CoordSys .... Z-matrix Internals
Initial Hessian          InHess   .... Almoef's Model

Convergence Tolerances:
Energy Change            TolE     ....  5.0000e-06 Eh
Max. Gradient            TolMAXG  ....  3.0000e-04 Eh/bohr
RMS Gradient             TolRMSG  ....  1.0000e-04 Eh/bohr
Max. Displacement        TolMAXD  ....  4.0000e-03 bohr
RMS Displacement         TolRMSD  ....  2.0000e-03 bohr
Strict Convergence                ....  False
------------------------------------------------------------------------------
                        ORCA OPTIMIZATION COORDINATE SETUP
------------------------------------------------------------------------------

The optimization will be done in new redundant internal coordinates
Making redundant internal coordinates   ...  (new redundants) done
Evaluating the initial hessian          ...  (Almloef) done
Evaluating the coordinates              ...  done
Calculating the B-matrix                .... done
Calculating the G-matrix                .... done
Diagonalizing the G-matrix              .... done
The first mode is                       ....    3
The number of degrees of freedom        ....   33

    -----------------------------------------------------------------
                    Redundant Internal Coordinates


    -----------------------------------------------------------------
         Definition                    Initial Value    Approx d2E/dq
    -----------------------------------------------------------------
      1. B(C   1,Mo  0)                  2.1484         0.389848   
      2. B(C   2,Mo  0)                  2.1484         0.389890   
      3. B(C   3,Mo  0)                  2.1484         0.389773   
      4. B(C   4,Mo  0)                  2.1484         0.389817   
      5. B(O   5,C   1)                  1.1280         1.465108   
      6. B(O   6,C   2)                  1.1280         1.464891   
      7. B(O   7,C   4)                  1.1280         1.465264   
      8. B(O   8,C   3)                  1.1279         1.465471   
      9. B(C   9,Mo  0)                  2.1484         0.389849   
     10. B(C  10,Mo  0)                  2.1484         0.389804   
     11. B(O  11,C   9)                  1.1280         1.465092   
     12. B(O  12,C  10)                  1.1280         1.465305   
     13. A(C   3,Mo  0,C   9)           90.0168         0.462061   
     14. A(C   2,Mo  0,C   9)           89.9835         0.462087   
     15. A(C   1,Mo  0,C  10)           90.0753         0.462068   
     16. A(C   4,Mo  0,C  10)           89.9246         0.462061   
     17. A(C   4,Mo  0,C   9)           90.0688         0.462071   
     18. A(C   2,Mo  0,C  10)           90.0151         0.462077   
     19. A(C   3,Mo  0,C  10)           89.9846         0.462051   
     20. A(C   3,Mo  0,C   4)           89.9908         0.462054   
     21. A(C   1,Mo  0,C   2)           89.9884         0.462086   
     22. A(C   1,Mo  0,C   3)           90.0058         0.462061   
     23. A(C   2,Mo  0,C   4)           90.0151         0.462080   
     24. A(C   1,Mo  0,C   9)           89.9313         0.462077   
     25. L(Mo  0,C   1,O   5,C   9, 2) 180.0059         0.521309   
     26. L(Mo  0,C   1,O   5,C   9, 1) 179.9668         0.521309   
     27. L(Mo  0,C   2,O   6,C   9, 1) 179.9925         0.521305   
     28. L(Mo  0,C   2,O   6,C   9, 2) 179.9897         0.521305   
     29. L(Mo  0,C   3,O   8,C  10, 2) 180.0019         0.521314   
     30. L(Mo  0,C   3,O   8,C  10, 1) 179.9925         0.521314   
     31. L(Mo  0,C   4,O   7,C  10, 2) 179.9925         0.521312   
     32. L(Mo  0,C   4,O   7,C  10, 1) 179.9669         0.521312   
     33. L(Mo  0,C   9,O  11,C   1, 2) 179.9875         0.521308   
     34. L(Mo  0,C   9,O  11,C   1, 1) 179.9699         0.521308   
     35. L(Mo  0,C  10,O  12,C   4, 2) 180.0087         0.521311   
     36. L(Mo  0,C  10,O  12,C   4, 1) 179.9642         0.521311   
    -----------------------------------------------------------------

Number of atoms                         .... 13
Number of degrees of freedom            .... 36

         *************************************************************
         *                GEOMETRY OPTIMIZATION CYCLE   1            *
         *************************************************************
---------------------------------
CARTESIAN COORDINATES (ANGSTROEM)
---------------------------------
  Mo    -1.162230    1.462310    0.004400
  C     -1.140930    3.602050    0.195850
  C      0.985560    1.437520    0.047410
  C     -3.310100    1.487320   -0.038580
  C     -1.183660   -0.677450   -0.187050
  O     -1.129650    4.725570    0.295720
  O      2.113310    1.424660    0.069860
  O     -1.195030   -1.800940   -0.286920
  O     -4.437740    1.500410   -0.061000
  C     -1.116540    1.655840   -2.134770
  C     -1.207870    1.268530    2.143580
  O     -1.092370    1.758040   -3.257880
  O     -1.231960    1.166090    3.266630

----------------------------
CARTESIAN COORDINATES (A.U.)
----------------------------
  NO LB      ZA    FRAG     MASS         X           Y           Z
   0 Mo   14.0000*   0    95.940   -2.196296    2.763365    0.008315
   1 C     6.0000    0    12.011   -2.156045    6.806888    0.370103
   2 C     6.0000    0    12.011    1.862438    2.716519    0.089592
   3 C     6.0000    0    12.011   -6.255182    2.810627   -0.072906
   4 C     6.0000    0    12.011   -2.236793   -1.280195   -0.353473
   5 O     8.0000    0    15.999   -2.134729    8.930033    0.558830
   6 O     8.0000    0    15.999    3.993577    2.692217    0.132016
   7 O     8.0000    0    15.999   -2.258279   -3.403283   -0.542200
   8 O     8.0000    0    15.999   -8.386113    2.835364   -0.115273
   9 C     6.0000    0    12.011   -2.109955    3.129084   -4.034131
  10 C     6.0000    0    12.011   -2.282544    2.397174    4.050779
  11 O     8.0000    0    15.999   -2.064280    3.322214   -6.156501
  12 O     8.0000    0    15.999   -2.328067    2.203591    6.173036
* core charge reduced due to ECP

--------------------------------
INTERNAL COORDINATES (ANGSTROEM)
--------------------------------
 Mo     0   0   0     0.000000000000     0.00000000     0.00000000
 C      1   0   0     2.148393367170     0.00000000     0.00000000
 C      1   2   0     2.148363630371    89.98835550     0.00000000
 C      1   2   3     2.148445558398    90.00575048   179.99968008
 C      1   2   3     2.148414579405   179.99653816   178.01177041
 O      2   1   3     1.128006403218   179.96648909    82.78929301
 O      3   1   2     1.128046738659   179.98955181   314.45941286
 O      5   1   3     1.127977426148   179.96648565    99.15931487
 O      4   1   2     1.127938816647   179.99237294   259.52716301
 C      1   2   3     2.148392358462    89.93131615   270.01648653
 C      1   2   3     2.148423787431    90.07528620    90.01506959
 O     10   1   2     1.128009353241   179.96864947    16.44691768
 O     11   1   2     1.127969673440   179.96363431   170.26474939

---------------------------
INTERNAL COORDINATES (A.U.)
---------------------------
 Mo     0   0   0     0.000000000000     0.00000000     0.00000000
 C      1   0   0     4.059875091884     0.00000000     0.00000000
 C      1   2   0     4.059818897478    89.98835550     0.00000000
 C      1   2   3     4.059973719012    90.00575048   179.99968008
 C      1   2   3     4.059915177199   179.99653816   178.01177041
 O      2   1   3     2.131623179391   179.96648909    82.78929301
 O      3   1   2     2.131699402329   179.98955181   314.45941286
 O      5   1   3     2.131568420666   179.96648565    99.15931487
 O      4   1   2     2.131495459283   179.99237294   259.52716301
 C      1   2   3     4.059873185703    89.93131615   270.01648653
 C      1   2   3     4.059932577847    90.07528620    90.01506959
 O     10   1   2     2.131628754128   179.96864947    16.44691768
 O     11   1   2     2.131553770170   179.96363431   170.26474939

---------------------
BASIS SET INFORMATION
---------------------
There are 3 groups of distinct atoms

 Group   1 Type Mo  : 7s7p5d1f contracted to 6s4p3d1f pattern {211111/4111/311/1}
 Group   2 Type C   : 12s6p3d1f contracted to 6s3p3d1f pattern {621111/411/111/1}
 Group   3 Type O   : 12s7p3d1f contracted to 6s4p3d1f pattern {621111/4111/111/1}

Atom   0Mo   basis set group =>   1
Atom   1C    basis set group =>   2
Atom   2C    basis set group =>   2
Atom   3C    basis set group =>   2
Atom   4C    basis set group =>   2
Atom   5O    basis set group =>   3
Atom   6O    basis set group =>   3
Atom   7O    basis set group =>   3
Atom   8O    basis set group =>   3
Atom   9C    basis set group =>   2
Atom  10C    basis set group =>   2
Atom  11O    basis set group =>   3
Atom  12O    basis set group =>   3
---------------------------------
AUXILIARY/J BASIS SET INFORMATION
---------------------------------
There are 3 groups of distinct atoms

 Group   1 Type Mo  : 11s5p5d3f3g contracted to 8s5p5d2f3g pattern {41111111/11111/11111/21/111}
 Group   2 Type C   : 12s5p4d2f1g contracted to 6s4p3d1f1g pattern {711111/2111/211/2/1}
 Group   3 Type O   : 12s5p4d2f1g contracted to 6s4p3d1f1g pattern {711111/2111/211/2/1}

Atom   0Mo   basis set group =>   1
Atom   1C    basis set group =>   2
Atom   2C    basis set group =>   2
Atom   3C    basis set group =>   2
Atom   4C    basis set group =>   2
Atom   5O    basis set group =>   3
Atom   6O    basis set group =>   3
Atom   7O    basis set group =>   3
Atom   8O    basis set group =>   3
Atom   9C    basis set group =>   2
Atom  10C    basis set group =>   2
Atom  11O    basis set group =>   3
Atom  12O    basis set group =>   3
-------------------------
ECP PARAMETER INFORMATION
-------------------------

 Group 1, Type Mo ECP Def2-ECP (replacing 28 core electrons, lmax=3)

Atom   0Mo   ECP group =>   1



           ************************************************************
           *        Program running with 8 parallel MPI-processes     *
           *              working on a common directory               *
           ************************************************************
------------------------------------------------------------------------------
                           ORCA GTO INTEGRAL CALCULATION
                           -- RI-GTO INTEGRALS CHOSEN --
------------------------------------------------------------------------------
------------------------------------------------------------------------------
                   ___                                                        
                  /   \      - P O W E R E D   B Y -                         
                 /     \                                                     
                 |  |  |   _    _      __       _____    __    __             
                 |  |  |  | |  | |    /  \     |  _  \  |  |  /  |          
                  \  \/   | |  | |   /    \    | | | |  |  | /  /          
                 / \  \   | |__| |  /  /\  \   | |_| |  |  |/  /          
                |  |  |   |  __  | /  /__\  \  |    /   |      \           
                |  |  |   | |  | | |   __   |  |    \   |  |\   \          
                \     /   | |  | | |  |  |  |  | |\  \  |  | \   \       
                 \___/    |_|  |_| |__|  |__|  |_| \__\ |__|  \__/        
                                                                              
                      - O R C A' S   B I G   F R I E N D -                    
                                      &                                       
                       - I N T E G R A L  F E E D E R -                       
                                                                              
 v1 FN, 2020, v2 2021                                                         
------------------------------------------------------------------------------


Reading SHARK input file MoCO6.SHARKINP.tmp ... ok
----------------------
SHARK INTEGRAL PACKAGE
----------------------

Number of atoms                             ...     13
Number of basis functions                   ...    502
Number of shells                            ...    176
Maximum angular momentum                    ...      3
Integral batch strategy                     ... SHARK/LIBINT Hybrid
RI-J (if used) integral strategy            ... SPLIT-RIJ (Revised 2003 algorithm where possible)
Printlevel                                  ...      1
Contraction scheme used                     ... SEGMENTED contraction
Coulomb Range Separation                    ... NOT USED
Exchange Range Separation                   ... NOT USED
Finite Nucleus Model                        ... NOT USED
Auxiliary Coulomb fitting basis             ... AVAILABLE
   # of basis functions in Aux-J            ...    677
   # of shells in Aux-J                     ...    203
   Maximum angular momentum in Aux-J        ...      4
Auxiliary J/K fitting basis                 ... NOT available
Auxiliary Correlation fitting basis         ... NOT available
Auxiliary 'external' fitting basis          ... NOT available
Integral threshold                          ...     2.500000e-11
Primitive cut-off                           ...     2.500000e-12
Primitive pair pre-selection threshold      ...     2.500000e-12

Calculating pre-screening integrals         ... done (  0.0 sec) Dimension = 176
Organizing shell pair data                  ... done (  0.2 sec)
Shell pair information
Total number of shell pairs                 ...     15576
Shell pairs after pre-screening             ...     13392
Total number of primitive shell pairs       ...     42469
Primitive shell pairs kept                  ...     26755
          la=0 lb=0:   2451 shell pairs
          la=1 lb=0:   3204 shell pairs
          la=1 lb=1:   1021 shell pairs
          la=2 lb=0:   2562 shell pairs
          la=2 lb=1:   1626 shell pairs
          la=2 lb=2:    693 shell pairs
          la=3 lb=0:    762 shell pairs
          la=3 lb=1:    550 shell pairs
          la=3 lb=2:    453 shell pairs
          la=3 lb=3:     70 shell pairs

Calculating one electron integrals          ... done (  0.0 sec)
Calculating ECP integrals                   ... done (  0.9 sec)
Calculating RI/J V-Matrix + Cholesky decomp.... done (  0.1 sec)
Calculating Nuclear repulsion               ... done (  0.0 sec) ENN=    743.232381127259 Eh

SHARK setup successfully completed in   1.4 seconds

Maximum memory used throughout the entire GTOINT-calculation: 25.2 MB


           ************************************************************
           *        Program running with 8 parallel MPI-processes     *
           *              working on a common directory               *
           ************************************************************
-------------------------------------------------------------------------------
                                 ORCA SCF
-------------------------------------------------------------------------------

------------
SCF SETTINGS
------------
Hamiltonian:
 Density Functional     Method          .... DFT(GTOs)
 Exchange Functional    Exchange        .... B88
   X-Alpha parameter    XAlpha          ....  0.666667
   Becke's b parameter  XBeta           ....  0.004200
 Correlation Functional Correlation     .... LYP
 LDA part of GGA corr.  LDAOpt          .... VWN-5
 Gradients option       PostSCFGGA      .... off
 Hybrid DFT is turned on
   Fraction HF Exchange ScalHFX         ....  0.200000
   Scaling of DF-GGA-X  ScalDFX         ....  0.720000
   Scaling of DF-GGA-C  ScalDFC         ....  0.810000
   Scaling of DF-LDA-C  ScalLDAC        ....  1.000000
   Perturbative correction              ....  0.000000
   Density functional embedding theory  .... OFF
   NL short-range parameter             ....  4.800000
 RI-approximation to the Coulomb term is turned on
   Number of AuxJ basis functions       .... 677
   RIJ-COSX (HFX calculated with COS-X)).... on


General Settings:
 Integral files         IntName         .... MoCO6
 Hartree-Fock type      HFTyp           .... RHF
 Total Charge           Charge          ....    0
 Multiplicity           Mult            ....    1
 Number of Electrons    NEL             ....   98
 Basis Dimension        Dim             ....  502
 Nuclear Repulsion      ENuc            ....    743.2323811273 Eh

Convergence Acceleration:
 DIIS                   CNVDIIS         .... on
   Start iteration      DIISMaxIt       ....    12
   Startup error        DIISStart       ....  0.200000
   # of expansion vecs  DIISMaxEq       ....     5
   Bias factor          DIISBfac        ....   1.050
   Max. coefficient     DIISMaxC        ....  10.000
 Trust-Rad. Augm. Hess. CNVTRAH         .... auto
   Auto Start mean grad. ratio tolernc. ....  1.125000
   Auto Start start iteration           ....    20
   Auto Start num. interpolation iter.  ....    10
   Max. Number of Micro iterations      ....    16
   Max. Number of Macro iterations      .... Maxiter - #DIIS iter
   Number of Davidson start vectors     ....     2
   Converg. threshold I  (grad. norm)   ....   1.000e-05
   Converg. threshold II (energy diff.) ....   1.000e-08
   Grad. Scal. Fac. for Micro threshold ....   0.100
   Minimum threshold for Micro iter.    ....   0.010
   NR start threshold (gradient norm)   ....   0.001
   Initial trust radius                 ....   0.400
   Minimum AH scaling param. (alpha)    ....   1.000
   Maximum AH scaling param. (alpha)    .... 1000.000
   Orbital update algorithm             .... Taylor
   White noise on init. David. guess    .... on
   Maximum white noise                  ....   0.010
   Quad. conv. algorithm                .... NR
 SOSCF                  CNVSOSCF        .... off
 Level Shifting         CNVShift        .... on
   Level shift para.    LevelShift      ....    0.2500
   Turn off err/grad.   ShiftErr        ....    0.0010
 Zerner damping         CNVZerner       .... off
 Static damping         CNVDamp         .... on
   Fraction old density DampFac         ....    0.7000
   Max. Damping (<1)    DampMax         ....    0.9800
   Min. Damping (>=0)   DampMin         ....    0.0000
   Turn off err/grad.   DampErr         ....    0.1000
 Fernandez-Rico         CNVRico         .... off

SCF Procedure:
 Maximum # iterations   MaxIter         ....   300
 SCF integral mode      SCFMode         .... Direct
   Integral package                     .... SHARK and LIBINT hybrid scheme
 Reset frequency        DirectResetFreq ....    20
 Integral Threshold     Thresh          ....  2.500e-11 Eh
 Primitive CutOff       TCut            ....  2.500e-12 Eh

Convergence Tolerance:
 Convergence Check Mode ConvCheckMode   .... Total+1el-Energy
 Convergence forced     ConvForced      .... 0
 Energy Change          TolE            ....  1.000e-08 Eh
 1-El. energy change                    ....  1.000e-05 Eh
 DIIS Error             TolErr          ....  5.000e-07


Diagonalization of the overlap matrix:
Smallest eigenvalue                        ... 6.469e-06
Time for diagonalization                   ...    0.070 sec
Threshold for overlap eigenvalues          ... 1.000e-08
Number of eigenvalues below threshold      ... 0
Time for construction of square roots      ...    0.121 sec
Total time needed                          ...    0.194 sec

Time for model grid setup =    0.167 sec

------------------------------
INITIAL GUESS: MODEL POTENTIAL
------------------------------
Loading Hartree-Fock densities                     ... done
  calling C:\orca_5_0_4\orca MoCO6_atom42.inp > MoCO6_atom42.out in order to generate an atomic fitting density for atom 0 (Mo with ECP) on-the-fly... 
    atom 0 (Mo), assumed electronic state with S=5: 1s2 2s2 2p6 3s2 3p6 4s2 3d10 4p6 5s2 4d4           ... done
Calculating cut-offs                               ... done
Initializing the effective Hamiltonian             ... done
Setting up the integral package (SHARK)            ... done
Starting the Coulomb interaction                   ... done (   0.1 sec)
Reading the grid                                   ... done
Mapping shells                                     ... done
Starting the XC term evaluation                    ... done (   0.2 sec)
  promolecular density results
     # of electrons  =    126.001474625
     EX              =   -199.596964466
     EC              =     -5.069662108
     EX+EC           =   -204.666626574
Transforming the Hamiltonian                       ... done (   0.1 sec)
Diagonalizing the Hamiltonian                      ... done (   0.1 sec)
Back transforming the eigenvectors                 ... done (   0.0 sec)
Now organizing SCF variables                       ... done
                      ------------------
                      INITIAL GUESS DONE (   6.0 sec)
                      ------------------
-------------------
DFT GRID GENERATION
-------------------

General Integration Accuracy     IntAcc      ... 4.388
Radial Grid Type                 RadialGrid  ... OptM3 with GC (2021)
Angular Grid (max. ang.)         AngularGrid ... 4 (Lebedev-302)
Angular grid pruning method      GridPruning ... 4 (adaptive)
Weight generation scheme         WeightScheme... Becke
Basis function cutoff            BFCut       ... 1.0000e-11
Integration weight cutoff        WCut        ... 1.0000e-14
Angular grids for H and He will be reduced by one unit
Partially contracted basis set               ... off
Rotationally invariant grid construction     ... off

Total number of grid points                  ...    87361
Total number of batches                      ...     1372
Average number of points per batch           ...       63
Average number of grid points per atom       ...     6720
Time for grid setup =    0.634 sec

--------------------
COSX GRID GENERATION
--------------------

GRIDX 1
-------
General Integration Accuracy     IntAcc      ... 3.816
Radial Grid Type                 RadialGrid  ... OptM3 with GC (2021)
Angular Grid (max. ang.)         AngularGrid ... 1 (Lebedev-50)
Angular grid pruning method      GridPruning ... 4 (adaptive)
Weight generation scheme         WeightScheme... Becke
Basis function cutoff            BFCut       ... 1.0000e-11
Integration weight cutoff        WCut        ... 1.0000e-14
Angular grids for H and He will be reduced by one unit
Partially contracted basis set               ... on
Rotationally invariant grid construction     ... off

Total number of grid points                  ...    10790
Total number of batches                      ...      177
Average number of points per batch           ...       60
Average number of grid points per atom       ...      830
UseSFitting                                  ... on

GRIDX 2
-------
General Integration Accuracy     IntAcc      ... 4.020
Radial Grid Type                 RadialGrid  ... OptM3 with GC (2021)
Angular Grid (max. ang.)         AngularGrid ... 2 (Lebedev-110)
Angular grid pruning method      GridPruning ... 4 (adaptive)
Weight generation scheme         WeightScheme... Becke
Basis function cutoff            BFCut       ... 1.0000e-11
Integration weight cutoff        WCut        ... 1.0000e-14
Angular grids for H and He will be reduced by one unit
Partially contracted basis set               ... on
Rotationally invariant grid construction     ... off

Total number of grid points                  ...    29064
Total number of batches                      ...      462
Average number of points per batch           ...       62
Average number of grid points per atom       ...     2236
UseSFitting                                  ... on

GRIDX 3
-------
General Integration Accuracy     IntAcc      ... 4.338
Radial Grid Type                 RadialGrid  ... OptM3 with GC (2021)
Angular Grid (max. ang.)         AngularGrid ... 3 (Lebedev-194)
Angular grid pruning method      GridPruning ... 4 (adaptive)
Weight generation scheme         WeightScheme... Becke
Basis function cutoff            BFCut       ... 1.0000e-11
Integration weight cutoff        WCut        ... 1.0000e-14
Angular grids for H and He will be reduced by one unit
Partially contracted basis set               ... on
Rotationally invariant grid construction     ... off

Total number of grid points                  ...    62040
Total number of batches                      ...      976
Average number of points per batch           ...       63
Average number of grid points per atom       ...     4772
UseSFitting                                  ... on

Time for X-Grid setup             =    1.627 sec

--------------
SCF ITERATIONS
--------------
ITER       Energy         Delta-E        Max-DP      RMS-DP      [F,P]     Damp
               ***  Starting incremental Fock matrix formation  ***
  0   -747.9649150245   0.000000000000 0.15826246  0.00090653  0.4294227 0.7000
  1   -748.1283753575  -0.163460332988 0.10463163  0.00058010  0.2797580 0.7000
                               ***Turning on DIIS***
  2   -748.1726143107  -0.044238953182 0.04450825  0.00028570  0.1833191 0.7000
  3   -748.2039777242  -0.031363413495 0.03063781  0.00017915  0.1274108 0.7000
  4   -748.2284123354  -0.024434611244 0.06785758  0.00037866  0.0927829 0.0000
  5   -748.2827132590  -0.054300923564 0.00796987  0.00006968  0.0068890 0.0000
  6   -748.2829413591  -0.000228100066 0.00491400  0.00003195  0.0045425 0.0000
  7   -748.2831141149  -0.000172755820 0.00158066  0.00001037  0.0022719 0.0000
  8   -748.2831289537  -0.000014838753 0.00204344  0.00000951  0.0002928 0.0000
               *** Restarting incremental Fock matrix formation ***
                                   *** Resetting DIIS ***
  9   -748.2831702399  -0.000041286285 0.00800304  0.00003591  0.0001651 0.0000
 10   -748.2831694793   0.000000760616 0.00027989  0.00000215  0.0005858 0.0000
 11   -748.2831703013  -0.000000821983 0.00075758  0.00000297  0.0000696 0.0000
 12   -748.2831703182  -0.000000016892 0.00030431  0.00000196  0.0000289 0.0000
 13   -748.2831703194  -0.000000001248 0.00142957  0.00000656  0.0000075 0.0000
                            ***DIIS convergence achieved***

               *****************************************************
               *                     SUCCESS                       *
               *           SCF CONVERGED AFTER  14 CYCLES          *
               *****************************************************

Old exchange energy                            =    -17.424411612 Eh
New exchange energy                            =    -17.424400590 Eh
Exchange energy change after final integration =      0.000011022 Eh
Total energy after final integration           =   -748.283159320 Eh
Final COS-X integration done in                =    10.587 sec

----------------
TOTAL SCF ENERGY
----------------

Total Energy       :         -748.28315932 Eh          -20361.81994 eV

Components:
Nuclear Repulsion  :          743.23238113 Eh           20224.38128 eV
Electronic Energy  :        -1491.51554045 Eh          -40586.20122 eV
One Electron Energy:        -2521.85875132 Eh          -68623.26536 eV
Two Electron Energy:         1030.34321087 Eh           28037.06414 eV
Max COSX asymmetry :            0.00000223 Eh               0.00006 eV

Virial components:
Potential Energy   :        -1449.05519801 Eh          -39430.79656 eV
Kinetic Energy     :          700.77203869 Eh           19068.97662 eV
Virial Ratio       :            2.06779825


DFT components:
N(Alpha)           :       48.999981462987 electrons
N(Beta)            :       48.999981462987 electrons
N(Total)           :       97.999962925974 electrons
E(X)               :      -69.705711189968 Eh       
E(C)               :       -4.055218283208 Eh       
E(XC)              :      -73.760929473176 Eh       
DFET-embed. en.    :        0.000000000000 Eh       

---------------
SCF CONVERGENCE
---------------

  Last Energy change         ...   -2.2310e-08  Tolerance :   1.0000e-08
  Last MAX-Density change    ...    0.0000e+00  Tolerance :   1.0000e-07
  Last RMS-Density change    ...    0.0000e+00  Tolerance :   5.0000e-09
  Last DIIS Error            ...    9.9722e-07  Tolerance :   5.0000e-07

             **** THE GBW FILE WAS UPDATED (MoCO6.gbw) ****
             **** DENSITY MoCO6.scfp WAS UPDATED ****
             **** ENERGY FILE WAS UPDATED (MoCO6.en.tmp) ****
             **** THE GBW FILE WAS UPDATED (MoCO6.gbw) ****
             **** DENSITY MoCO6.scfp WAS UPDATED ****
----------------
ORBITAL ENERGIES
----------------

  NO   OCC          E(Eh)            E(eV) 
   0   2.0000     -19.226032      -523.1669 
   1   2.0000     -19.226023      -523.1667 
   2   2.0000     -19.226020      -523.1666 
   3   2.0000     -19.226013      -523.1664 
   4   2.0000     -19.226011      -523.1664 
   5   2.0000     -19.226003      -523.1661 
   6   2.0000     -10.302457      -280.3441 
   7   2.0000     -10.302452      -280.3440 
   8   2.0000     -10.302452      -280.3440 
   9   2.0000     -10.302452      -280.3440 
  10   2.0000     -10.302448      -280.3439 
  11   2.0000     -10.302448      -280.3439 
  12   2.0000      -2.572268       -69.9950 
  13   2.0000      -1.572504       -42.7900 
  14   2.0000      -1.572479       -42.7893 
  15   2.0000      -1.572455       -42.7887 
  16   2.0000      -1.166089       -31.7309 
  17   2.0000      -1.165671       -31.7195 
  18   2.0000      -1.165662       -31.7193 
  19   2.0000      -1.165659       -31.7192 
  20   2.0000      -1.165555       -31.7164 
  21   2.0000      -1.165544       -31.7161 
  22   2.0000      -0.598802       -16.2942 
  23   2.0000      -0.581043       -15.8110 
  24   2.0000      -0.581042       -15.8109 
  25   2.0000      -0.578684       -15.7468 
  26   2.0000      -0.578666       -15.7463 
  27   2.0000      -0.578652       -15.7459 
  28   2.0000      -0.499991       -13.6054 
  29   2.0000      -0.490331       -13.3426 
  30   2.0000      -0.490318       -13.3422 
  31   2.0000      -0.490309       -13.3420 
  32   2.0000      -0.485312       -13.2060 
  33   2.0000      -0.485288       -13.2054 
  34   2.0000      -0.485266       -13.2048 
  35   2.0000      -0.480013       -13.0618 
  36   2.0000      -0.479998       -13.0614 
  37   2.0000      -0.479981       -13.0609 
  38   2.0000      -0.476090       -12.9551 
  39   2.0000      -0.476090       -12.9551 
  40   2.0000      -0.476089       -12.9550 
  41   2.0000      -0.465598       -12.6696 
  42   2.0000      -0.465597       -12.6695 
  43   2.0000      -0.421692       -11.4748 
  44   2.0000      -0.421618       -11.4728 
  45   2.0000      -0.421552       -11.4710 
  46   2.0000      -0.239247        -6.5102 
  47   2.0000      -0.239195        -6.5088 
  48   2.0000      -0.239177        -6.5083 
  49   0.0000      -0.067357        -1.8329 
  50   0.0000      -0.067323        -1.8320 
  51   0.0000      -0.067287        -1.8310 
  52   0.0000      -0.043102        -1.1729 
  53   0.0000      -0.043040        -1.1712 
  54   0.0000      -0.042960        -1.1690 
  55   0.0000      -0.002944        -0.0801 
  56   0.0000      -0.002939        -0.0800 
  57   0.0000      -0.002937        -0.0799 
  58   0.0000      -0.002459        -0.0669 
  59   0.0000       0.012535         0.3411 
  60   0.0000       0.012538         0.3412 
  61   0.0000       0.012542         0.3413 
  62   0.0000       0.020254         0.5511 
  63   0.0000       0.020258         0.5513 
  64   0.0000       0.022356         0.6083 
  65   0.0000       0.022380         0.6090 
  66   0.0000       0.022400         0.6095 
  67   0.0000       0.056462         1.5364 
  68   0.0000       0.056476         1.5368 
  69   0.0000       0.056486         1.5371 
  70   0.0000       0.060216         1.6386 
  71   0.0000       0.060218         1.6386 
  72   0.0000       0.077333         2.1043 
  73   0.0000       0.077343         2.1046 
  74   0.0000       0.077355         2.1049 
  75   0.0000       0.084148         2.2898 
  76   0.0000       0.090761         2.4697 
  77   0.0000       0.090784         2.4704 
  78   0.0000       0.090815         2.4712 
  79   0.0000       0.128459         3.4955 
  80   0.0000       0.128461         3.4956 
  81   0.0000       0.128462         3.4956 
  82   0.0000       0.128597         3.4993 
  83   0.0000       0.132238         3.5984 
  84   0.0000       0.132243         3.5985 
  85   0.0000       0.140636         3.8269 
  86   0.0000       0.140724         3.8293 
  87   0.0000       0.140792         3.8312 
  88   0.0000       0.188912         5.1406 
  89   0.0000       0.196203         5.3389 
  90   0.0000       0.196241         5.3400 
  91   0.0000       0.196271         5.3408 
  92   0.0000       0.208519         5.6741 
  93   0.0000       0.208529         5.6744 
  94   0.0000       0.208545         5.6748 
  95   0.0000       0.217403         5.9158 
  96   0.0000       0.217408         5.9160 
  97   0.0000       0.236370         6.4319 
  98   0.0000       0.236393         6.4326 
  99   0.0000       0.236425         6.4335 
 100   0.0000       0.253497         6.8980 
 101   0.0000       0.253565         6.8999 
 102   0.0000       0.253626         6.9015 
 103   0.0000       0.257384         7.0038 
 104   0.0000       0.270527         7.3614 
 105   0.0000       0.270547         7.3620 
 106   0.0000       0.273032         7.4296 
 107   0.0000       0.273169         7.4333 
 108   0.0000       0.273253         7.4356 
 109   0.0000       0.285708         7.7745 
 110   0.0000       0.285766         7.7761 
 111   0.0000       0.285829         7.7778 
 112   0.0000       0.300837         8.1862 
 113   0.0000       0.304584         8.2882 
 114   0.0000       0.304607         8.2888 
 115   0.0000       0.335267         9.1231 
 116   0.0000       0.338884         9.2215 
 117   0.0000       0.338999         9.2246 
 118   0.0000       0.339123         9.2280 
 119   0.0000       0.340670         9.2701 
 120   0.0000       0.340797         9.2736 
 121   0.0000       0.340888         9.2760 
 122   0.0000       0.341299         9.2872 
 123   0.0000       0.341318         9.2877 
 124   0.0000       0.341320         9.2878 
 125   0.0000       0.348745         9.4898 
 126   0.0000       0.348753         9.4901 
 127   0.0000       0.371693        10.1143 
 128   0.0000       0.389212        10.5910 
 129   0.0000       0.389453        10.5976 
 130   0.0000       0.389805        10.6071 
 131   0.0000       0.432746        11.7756 
 132   0.0000       0.432794        11.7769 
 133   0.0000       0.432816        11.7775 
 134   0.0000       0.482285        13.1237 
 135   0.0000       0.482460        13.1284 
 136   0.0000       0.482647        13.1335 
 137   0.0000       0.485423        13.2090 
 138   0.0000       0.485469        13.2103 
 139   0.0000       0.485539        13.2122 
 140   0.0000       0.488204        13.2847 
 141   0.0000       0.488872        13.3029 
 142   0.0000       0.489029        13.3072 
 143   0.0000       0.489145        13.3103 
 144   0.0000       0.503648        13.7050 
 145   0.0000       0.530674        14.4404 
 146   0.0000       0.530805        14.4439 
 147   0.0000       0.531022        14.4498 
 148   0.0000       0.533313        14.5122 
 149   0.0000       0.533346        14.5131 
 150   0.0000       0.537949        14.6383 
 151   0.0000       0.538015        14.6401 
 152   0.0000       0.538103        14.6425 
 153   0.0000       0.550561        14.9815 
 154   0.0000       0.550814        14.9884 
 155   0.0000       0.550977        14.9929 
 156   0.0000       0.561016        15.2660 
 157   0.0000       0.561064        15.2673 
 158   0.0000       0.561122        15.2689 
 159   0.0000       0.561127        15.2690 
 160   0.0000       0.562272        15.3002 
 161   0.0000       0.562280        15.3004 
 162   0.0000       0.591979        16.1086 
 163   0.0000       0.592080        16.1113 
 164   0.0000       0.592139        16.1129 
 165   0.0000       0.615334        16.7441 
 166   0.0000       0.615359        16.7448 
 167   0.0000       0.663794        18.0628 
 168   0.0000       0.663854        18.0644 
 169   0.0000       0.672150        18.2901 
 170   0.0000       0.672228        18.2922 
 171   0.0000       0.672295        18.2941 
 172   0.0000       0.680420        18.5152 
 173   0.0000       0.680436        18.5156 
 174   0.0000       0.701123        19.0785 
 175   0.0000       0.701215        19.0810 
 176   0.0000       0.701260        19.0822 
 177   0.0000       0.703570        19.1451 
 178   0.0000       0.703986        19.1564 
 179   0.0000       0.704354        19.1664 
 180   0.0000       0.720070        19.5941 
 181   0.0000       0.737989        20.0817 
 182   0.0000       0.738067        20.0838 
 183   0.0000       0.738128        20.0855 
 184   0.0000       0.758749        20.6466 
 185   0.0000       0.758837        20.6490 
 186   0.0000       0.758892        20.6505 
 187   0.0000       0.777528        21.1576 
 188   0.0000       0.819227        22.2923 
 189   0.0000       0.819250        22.2929 
 190   0.0000       0.831916        22.6376 
 191   0.0000       0.832019        22.6404 
 192   0.0000       0.832100        22.6426 
 193   0.0000       0.844695        22.9853 
 194   0.0000       0.844711        22.9858 
 195   0.0000       0.855559        23.2809 
 196   0.0000       0.855706        23.2849 
 197   0.0000       0.855848        23.2888 
 198   0.0000       0.858726        23.3671 
 199   0.0000       0.859057        23.3761 
 200   0.0000       0.859093        23.3771 
 201   0.0000       0.874984        23.8095 
 202   0.0000       0.880824        23.9684 
 203   0.0000       0.881047        23.9745 
 204   0.0000       0.881232        23.9795 
 205   0.0000       0.884896        24.0792 
 206   0.0000       0.884935        24.0803 
 207   0.0000       0.884958        24.0809 
 208   0.0000       0.898800        24.4576 
 209   0.0000       0.906695        24.6724 
 210   0.0000       0.919326        25.0161 
 211   0.0000       0.919619        25.0241 
 212   0.0000       0.919962        25.0334 
 213   0.0000       0.930815        25.3288 
 214   0.0000       0.930975        25.3331 
 215   0.0000       0.931109        25.3368 
 216   0.0000       0.932550        25.3760 
 217   0.0000       0.932583        25.3769 
 218   0.0000       0.932594        25.3772 
 219   0.0000       0.959171        26.1004 
 220   0.0000       0.959214        26.1016 
 221   0.0000       0.959239        26.1022 
 222   0.0000       1.016583        27.6626 
 223   0.0000       1.016629        27.6639 
 224   0.0000       1.016804        27.6687 
 225   0.0000       1.068662        29.0798 
 226   0.0000       1.068836        29.0845 
 227   0.0000       1.107724        30.1427 
 228   0.0000       1.107756        30.1436 
 229   0.0000       1.107765        30.1438 
 230   0.0000       1.137967        30.9657 
 231   0.0000       1.138088        30.9690 
 232   0.0000       1.174241        31.9527 
 233   0.0000       1.174343        31.9555 
 234   0.0000       1.174397        31.9570 
 235   0.0000       1.223547        33.2944 
 236   0.0000       1.244178        33.8558 
 237   0.0000       1.244539        33.8656 
 238   0.0000       1.244907        33.8756 
 239   0.0000       1.280420        34.8420 
 240   0.0000       1.280436        34.8424 
 241   0.0000       1.280444        34.8427 
 242   0.0000       1.318938        35.8901 
 243   0.0000       1.318982        35.8913 
 244   0.0000       1.384578        37.6763 
 245   0.0000       1.384748        37.6809 
 246   0.0000       1.384912        37.6854 
 247   0.0000       1.403040        38.1787 
 248   0.0000       1.549872        42.1742 
 249   0.0000       1.549898        42.1749 
 250   0.0000       1.549918        42.1754 
 251   0.0000       1.624124        44.1947 
 252   0.0000       1.624150        44.1954 
 253   0.0000       1.630991        44.3815 
 254   0.0000       1.631020        44.3823 
 255   0.0000       1.631051        44.3832 
 256   0.0000       1.694719        46.1157 
 257   0.0000       1.694730        46.1160 
 258   0.0000       1.694747        46.1164 
 259   0.0000       1.699942        46.2578 
 260   0.0000       1.700004        46.2595 
 261   0.0000       1.714736        46.6603 
 262   0.0000       1.714876        46.6642 
 263   0.0000       1.715054        46.6690 
 264   0.0000       1.732609        47.1467 
 265   0.0000       1.732640        47.1475 
 266   0.0000       1.732734        47.1501 
 267   0.0000       1.756605        47.7997 
 268   0.0000       1.756887        47.8073 
 269   0.0000       1.757113        47.8135 
 270   0.0000       1.766732        48.0752 
 271   0.0000       1.766737        48.0754 
 272   0.0000       1.767432        48.0943 
 273   0.0000       1.780946        48.4620 
 274   0.0000       1.804124        49.0927 
 275   0.0000       1.804158        49.0936 
 276   0.0000       1.804209        49.0950 
 277   0.0000       1.829853        49.7928 
 278   0.0000       1.845808        50.2270 
 279   0.0000       1.846563        50.2475 
 280   0.0000       1.847453        50.2717 
 281   0.0000       1.851341        50.3776 
 282   0.0000       1.856359        50.5141 
 283   0.0000       1.856570        50.5199 
 284   0.0000       1.856781        50.5256 
 285   0.0000       1.904168        51.8150 
 286   0.0000       1.904286        51.8183 
 287   0.0000       1.904439        51.8224 
 288   0.0000       1.949800        53.0568 
 289   0.0000       1.949844        53.0580 
 290   0.0000       2.020899        54.9914 
 291   0.0000       2.021037        54.9952 
 292   0.0000       2.091813        56.9211 
 293   0.0000       2.092253        56.9331 
 294   0.0000       2.092875        56.9500 
 295   0.0000       2.118678        57.6522 
 296   0.0000       2.118681        57.6522 
 297   0.0000       2.118721        57.6533 
 298   0.0000       2.155136        58.6442 
 299   0.0000       2.155350        58.6501 
 300   0.0000       2.155548        58.6554 
 301   0.0000       2.217517        60.3417 
 302   0.0000       2.217584        60.3435 
 303   0.0000       2.217657        60.3455 
 304   0.0000       2.251619        61.2697 
 305   0.0000       2.251631        61.2700 
 306   0.0000       2.251659        61.2708 
 307   0.0000       2.262264        61.5593 
 308   0.0000       2.392371        65.0997 
 309   0.0000       2.425732        66.0075 
 310   0.0000       2.425756        66.0082 
 311   0.0000       2.434335        66.2416 
 312   0.0000       2.434613        66.2492 
 313   0.0000       2.434966        66.2588 
 314   0.0000       2.478650        67.4475 
 315   0.0000       2.642000        71.8925 
 316   0.0000       2.642024        71.8931 
 317   0.0000       2.642050        71.8938 
 318   0.0000       2.653681        72.2103 
 319   0.0000       2.653737        72.2118 
 320   0.0000       2.653773        72.2128 
 321   0.0000       2.673495        72.7495 
 322   0.0000       2.673593        72.7522 
 323   0.0000       2.673692        72.7549 
 324   0.0000       2.760854        75.1267 
 325   0.0000       2.761001        75.1307 
 326   0.0000       2.761092        75.1331 
 327   0.0000       2.809655        76.4546 
 328   0.0000       2.809738        76.4568 
 329   0.0000       2.809845        76.4598 
 330   0.0000       2.811972        76.5176 
 331   0.0000       2.811994        76.5182 
 332   0.0000       2.815711        76.6194 
 333   0.0000       2.815817        76.6223 
 334   0.0000       2.815888        76.6242 
 335   0.0000       2.821727        76.7831 
 336   0.0000       2.821942        76.7890 
 337   0.0000       2.822149        76.7946 
 338   0.0000       2.823394        76.8284 
 339   0.0000       2.823436        76.8296 
 340   0.0000       2.837573        77.2143 
 341   0.0000       2.856071        77.7176 
 342   0.0000       2.928670        79.6932 
 343   0.0000       2.928684        79.6936 
 344   0.0000       2.928743        79.6952 
 345   0.0000       2.945981        80.1642 
 346   0.0000       2.946019        80.1653 
 347   0.0000       2.946035        80.1657 
 348   0.0000       2.969499        80.8042 
 349   0.0000       2.969654        80.8084 
 350   0.0000       2.969958        80.8167 
 351   0.0000       2.991352        81.3988 
 352   0.0000       2.991567        81.4047 
 353   0.0000       2.991788        81.4107 
 354   0.0000       3.007410        81.8358 
 355   0.0000       3.063712        83.3678 
 356   0.0000       3.063731        83.3684 
 357   0.0000       3.078712        83.7760 
 358   0.0000       3.078771        83.7776 
 359   0.0000       3.078818        83.7789 
 360   0.0000       3.127538        85.1046 
 361   0.0000       3.127554        85.1051 
 362   0.0000       3.134340        85.2897 
 363   0.0000       3.134532        85.2949 
 364   0.0000       3.134753        85.3010 
 365   0.0000       3.142486        85.5114 
 366   0.0000       3.217457        87.5514 
 367   0.0000       3.217702        87.5581 
 368   0.0000       3.218033        87.5671 
 369   0.0000       3.275602        89.1337 
 370   0.0000       3.276128        89.1480 
 371   0.0000       3.276678        89.1629 
 372   0.0000       3.297766        89.7368 
 373   0.0000       3.297771        89.7369 
 374   0.0000       3.297795        89.7376 
 375   0.0000       3.338193        90.8368 
 376   0.0000       3.338586        90.8475 
 377   0.0000       3.338987        90.8584 
 378   0.0000       3.363562        91.5272 
 379   0.0000       3.371110        91.7326 
 380   0.0000       3.371133        91.7332 
 381   0.0000       3.371153        91.7337 
 382   0.0000       3.400044        92.5199 
 383   0.0000       3.400087        92.5211 
 384   0.0000       3.413507        92.8862 
 385   0.0000       3.413518        92.8865 
 386   0.0000       3.509653        95.5025 
 387   0.0000       3.509925        95.5099 
 388   0.0000       3.510156        95.5162 
 389   0.0000       3.546310        96.5000 
 390   0.0000       3.588975        97.6610 
 391   0.0000       3.589021        97.6622 
 392   0.0000       3.630312        98.7858 
 393   0.0000       3.630346        98.7867 
 394   0.0000       3.630349        98.7868 
 395   0.0000       3.695330       100.5550 
 396   0.0000       3.695537       100.5607 
 397   0.0000       3.695799       100.5678 
 398   0.0000       3.730938       101.5240 
 399   0.0000       3.731261       101.5328 
 400   0.0000       3.731549       101.5406 
 401   0.0000       3.798348       103.3583 
 402   0.0000       3.798504       103.3626 
 403   0.0000       3.798631       103.3660 
 404   0.0000       4.179308       113.7248 
 405   0.0000       4.339863       118.0937 
 406   0.0000       4.339909       118.0949 
 407   0.0000       4.385371       119.3320 
 408   0.0000       4.385556       119.3370 
 409   0.0000       4.385697       119.3409 
 410   0.0000       4.402512       119.7984 
 411   0.0000       4.582459       124.6951 
 412   0.0000       4.582621       124.6994 
 413   0.0000       4.582834       124.7053 
 414   0.0000       4.669565       127.0653 
 415   0.0000       4.669572       127.0655 
 416   0.0000       5.076341       138.1343 
 417   0.0000       5.076347       138.1344 
 418   0.0000       5.076366       138.1349 
 419   0.0000       5.076398       138.1358 
 420   0.0000       5.076409       138.1361 
 421   0.0000       5.076411       138.1362 
 422   0.0000       5.076467       138.1377 
 423   0.0000       5.076480       138.1380 
 424   0.0000       5.076483       138.1381 
 425   0.0000       5.079009       138.2069 
 426   0.0000       5.079015       138.2070 
 427   0.0000       5.079033       138.2075 
 428   0.0000       5.495321       149.5353 
 429   0.0000       5.495323       149.5353 
 430   0.0000       5.499853       149.6586 
 431   0.0000       5.499865       149.6589 
 432   0.0000       5.499870       149.6591 
 433   0.0000       5.501456       149.7022 
 434   0.0000       5.501682       149.7084 
 435   0.0000       5.501694       149.7087 
 436   0.0000       5.501715       149.7093 
 437   0.0000       5.502654       149.7348 
 438   0.0000       5.549086       150.9983 
 439   0.0000       5.549099       150.9987 
 440   0.0000       6.203598       168.8085 
 441   0.0000       6.203600       168.8085 
 442   0.0000       6.203602       168.8086 
 443   0.0000       6.248359       170.0265 
 444   0.0000       6.248395       170.0275 
 445   0.0000       6.248418       170.0281 
 446   0.0000       6.274800       170.7460 
 447   0.0000       6.274832       170.7469 
 448   0.0000       6.274854       170.7475 
 449   0.0000       6.310449       171.7161 
 450   0.0000       6.310593       171.7200 
 451   0.0000       6.310767       171.7247 
 452   0.0000       6.377866       173.5506 
 453   0.0000       6.377958       173.5531 
 454   0.0000       6.378097       173.5569 
 455   0.0000       6.386692       173.7907 
 456   0.0000       6.406136       174.3198 
 457   0.0000       6.406144       174.3200 
 458   0.0000       6.409927       174.4230 
 459   0.0000       6.410185       174.4300 
 460   0.0000       6.410374       174.4352 
 461   0.0000       6.432792       175.0452 
 462   0.0000       6.432801       175.0454 
 463   0.0000       6.461576       175.8284 
 464   0.0000       6.615816       180.0255 
 465   0.0000       6.639635       180.6737 
 466   0.0000       6.639644       180.6739 
 467   0.0000       6.639655       180.6742 
 468   0.0000       6.641164       180.7153 
 469   0.0000       6.641175       180.7156 
 470   0.0000       6.805149       185.1775 
 471   0.0000       6.805531       185.1879 
 472   0.0000       6.805857       185.1968 
 473   0.0000       6.824411       185.7017 
 474   0.0000       6.824467       185.7032 
 475   0.0000       6.824527       185.7048 
 476   0.0000       6.833357       185.9451 
 477   0.0000       6.833362       185.9452 
 478   0.0000       6.833376       185.9456 
 479   0.0000       6.843158       186.2118 
 480   0.0000       6.843202       186.2130 
 481   0.0000       6.843255       186.2144 
 482   0.0000       7.176232       195.2752 
 483   0.0000       7.176292       195.2768 
 484   0.0000       7.176361       195.2787 
 485   0.0000       7.183933       195.4848 
 486   0.0000       7.183941       195.4850 
 487   0.0000       7.201580       195.9649 
 488   0.0000      22.902730       623.2150 
 489   0.0000      22.902769       623.2160 
 490   0.0000      22.932041       624.0126 
 491   0.0000      22.932473       624.0243 
 492   0.0000      22.932941       624.0371 
 493   0.0000      23.021003       626.4333 
 494   0.0000      24.986306       679.9119 
 495   0.0000      44.076316      1199.3775 
 496   0.0000      44.144775      1201.2404 
 497   0.0000      44.144895      1201.2437 
 498   0.0000      44.145062      1201.2482 
 499   0.0000      44.243202      1203.9187 
 500   0.0000      44.243218      1203.9192 
 501   0.0000      84.436358      2297.6301 

                    ********************************
                    * MULLIKEN POPULATION ANALYSIS *
                    ********************************

-----------------------
MULLIKEN ATOMIC CHARGES
-----------------------
   0 Mo:    0.143963
   1 C :    0.157281
   2 C :    0.157148
   3 C :    0.156933
   4 C :    0.157302
   5 O :   -0.181303
   6 O :   -0.181241
   7 O :   -0.181269
   8 O :   -0.180998
   9 C :    0.157413
  10 C :    0.157396
  11 O :   -0.181341
  12 O :   -0.181284
Sum of atomic charges:   -0.0000000

--------------------------------
MULLIKEN REDUCED ORBITAL CHARGES
--------------------------------
  0 Mos       :     2.460944  s :     2.460944
      pz      :     2.221825  p :     6.665375
      px      :     2.221703
      py      :     2.221847
      dz2     :     0.426588  d :     4.710933
      dxz     :     1.299545
      dyz     :     1.272250
      dx2y2   :     0.411895
      dxy     :     1.300655
      f0      :     0.005590  f :     0.018785
      f+1     :     0.002468
      f-1     :     0.002556
      f+2     :     0.000665
      f-2     :     0.000017
      f+3     :     0.003777
      f-3     :     0.003711
  1 C s       :     3.602296  s :     3.602296
      pz      :     0.623353  p :     2.132517
      px      :     0.621318
      py      :     0.887846
      dz2     :     0.003488  d :     0.091141
      dxz     :     0.005161
      dyz     :     0.038615
      dx2y2   :     0.004348
      dxy     :     0.039529
      f0      :     0.002102  f :     0.016765
      f+1     :     0.000346
      f-1     :     0.002044
      f+2     :     0.003620
      f-2     :     0.000201
      f+3     :     0.005423
      f-3     :     0.003030
  2 C s       :     3.602375  s :     3.602375
      pz      :     0.621437  p :     2.132436
      px      :     0.889658
      py      :     0.621341
      dz2     :     0.002727  d :     0.091276
      dxz     :     0.039797
      dyz     :     0.004844
      dx2y2   :     0.004093
      dxy     :     0.039815
      f0      :     0.002198  f :     0.016766
      f+1     :     0.001867
      f-1     :     0.000371
      f+2     :     0.003674
      f-2     :     0.000094
      f+3     :     0.003058
      f-3     :     0.005503
  3 C s       :     3.602490  s :     3.602490
      pz      :     0.621417  p :     2.132517
      px      :     0.889779
      py      :     0.621321
      dz2     :     0.002727  d :     0.091293
      dxz     :     0.039797
      dyz     :     0.004845
      dx2y2   :     0.004107
      dxy     :     0.039816
      f0      :     0.002199  f :     0.016767
      f+1     :     0.001867
      f-1     :     0.000371
      f+2     :     0.003675
      f-2     :     0.000094
      f+3     :     0.003057
      f-3     :     0.005504
  4 C s       :     3.602254  s :     3.602254
      pz      :     0.623346  p :     2.132539
      px      :     0.621316
      py      :     0.887877
      dz2     :     0.003492  d :     0.091139
      dxz     :     0.005162
      dyz     :     0.038619
      dx2y2   :     0.004342
      dxy     :     0.039526
      f0      :     0.002102  f :     0.016765
      f+1     :     0.000346
      f-1     :     0.002044
      f+2     :     0.003620
      f-2     :     0.000201
      f+3     :     0.005423
      f-3     :     0.003030
  5 O s       :     3.886854  s :     3.886854
      pz      :     1.476389  p :     4.242091
      px      :     1.477862
      py      :     1.287840
      dz2     :     0.002760  d :     0.050639
      dxz     :     0.000053
      dyz     :     0.020054
      dx2y2   :     0.007493
      dxy     :     0.020279
      f0      :     0.000253  f :     0.001719
      f+1     :     0.000042
      f-1     :     0.000136
      f+2     :     0.000435
      f-2     :     0.000015
      f+3     :     0.000666
      f-3     :     0.000173
  6 O s       :     3.886991  s :     3.886991
      pz      :     1.477829  p :     4.241956
      px      :     1.286260
      py      :     1.477866
      dz2     :     0.002404  d :     0.050575
      dxz     :     0.020419
      dyz     :    -0.000103
      dx2y2   :     0.007428
      dxy     :     0.020426
      f0      :     0.000270  f :     0.001719
      f+1     :     0.000104
      f-1     :     0.000045
      f+2     :     0.000450
      f-2     :     0.000001
      f+3     :     0.000172
      f-3     :     0.000676
  7 O s       :     3.886851  s :     3.886851
      pz      :     1.476375  p :     4.242058
      px      :     1.477849
      py      :     1.287834
      dz2     :     0.002760  d :     0.050640
      dxz     :     0.000053
      dyz     :     0.020054
      dx2y2   :     0.007493
      dxy     :     0.020280
      f0      :     0.000253  f :     0.001719
      f+1     :     0.000042
      f-1     :     0.000136
      f+2     :     0.000435
      f-2     :     0.000015
      f+3     :     0.000666
      f-3     :     0.000173
  8 O s       :     3.886871  s :     3.886871
      pz      :     1.477779  p :     4.241825
      px      :     1.286230
      py      :     1.477815
      dz2     :     0.002404  d :     0.050582
      dxz     :     0.020422
      dyz     :    -0.000103
      dx2y2   :     0.007430
      dxy     :     0.020428
      f0      :     0.000270  f :     0.001719
      f+1     :     0.000104
      f-1     :     0.000045
      f+2     :     0.000451
      f-2     :     0.000001
      f+3     :     0.000172
      f-3     :     0.000676
  9 C s       :     3.602202  s :     3.602202
      pz      :     0.887619  p :     2.132501
      px      :     0.621408
      py      :     0.623474
      dz2     :     0.005707  d :     0.091119
      dxz     :     0.039449
      dyz     :     0.038554
      dx2y2   :     0.002217
      dxy     :     0.005193
      f0      :     0.004906  f :     0.016765
      f+1     :     0.005752
      f-1     :     0.005704
      f+2     :     0.000183
      f-2     :     0.000211
      f+3     :     0.000005
      f-3     :     0.000005
 10 C s       :     3.602196  s :     3.602196
      pz      :     0.887647  p :     2.132528
      px      :     0.621399
      py      :     0.623482
      dz2     :     0.005706  d :     0.091115
      dxz     :     0.039449
      dyz     :     0.038548
      dx2y2   :     0.002218
      dxy     :     0.005194
      f0      :     0.004906  f :     0.016765
      f+1     :     0.005751
      f-1     :     0.005704
      f+2     :     0.000183
      f-2     :     0.000211
      f+3     :     0.000005
      f-3     :     0.000005
 11 O s       :     3.886867  s :     3.886867
      pz      :     1.288004  p :     4.242109
      px      :     1.477794
      py      :     1.476311
      dz2     :     0.010251  d :     0.050645
      dxz     :     0.020254
      dyz     :     0.020028
      dx2y2   :     0.000045
      dxy     :     0.000067
      f0      :     0.000296  f :     0.001719
      f+1     :     0.000706
      f-1     :     0.000686
      f+2     :     0.000016
      f-2     :     0.000016
      f+3     :     0.000000
      f-3     :     0.000000
 12 O s       :     3.886855  s :     3.886855
      pz      :     1.288001  p :     4.242062
      px      :     1.477776
      py      :     1.476284
      dz2     :     0.010253  d :     0.050648
      dxz     :     0.020255
      dyz     :     0.020027
      dx2y2   :     0.000045
      dxy     :     0.000068
      f0      :     0.000296  f :     0.001719
      f+1     :     0.000706
      f-1     :     0.000686
      f+2     :     0.000016
      f-2     :     0.000016
      f+3     :     0.000000
      f-3     :     0.000000


                     *******************************
                     * LOEWDIN POPULATION ANALYSIS *
                     *******************************

----------------------
LOEWDIN ATOMIC CHARGES
----------------------
   0 Mo:    0.538927
   1 C :   -0.202787
   2 C :   -0.202790
   3 C :   -0.202810
   4 C :   -0.202793
   5 O :    0.112950
   6 O :    0.112910
   7 O :    0.112985
   8 O :    0.113039
   9 C :   -0.202783
  10 C :   -0.202790
  11 O :    0.112947
  12 O :    0.112994

-------------------------------
LOEWDIN REDUCED ORBITAL CHARGES
-------------------------------
  0 Mos       :     1.900924  s :     1.900924
      pz      :     2.180045  p :     6.540195
      px      :     2.180069
      py      :     2.180082
      dz2     :     0.773046  d :     4.979358
      dxz     :     1.150316
      dyz     :     1.138594
      dx2y2   :     0.766669
      dxy     :     1.150734
      f0      :     0.012374  f :     0.040596
      f+1     :     0.005263
      f-1     :     0.005456
      f+2     :     0.001141
      f-2     :     0.000027
      f+3     :     0.008244
      f-3     :     0.008090
  1 C s       :     2.999654  s :     2.999654
      pz      :     0.623268  p :     2.351585
      px      :     0.619436
      py      :     1.108881
      dz2     :     0.081581  d :     0.762930
      dxz     :     0.014902
      dyz     :     0.234823
      dx2y2   :     0.197331
      dxy     :     0.234293
      f0      :     0.010935  f :     0.088617
      f+1     :     0.001744
      f-1     :     0.011307
      f+2     :     0.018687
      f-2     :     0.000789
      f+3     :     0.027994
      f-3     :     0.017161
  2 C s       :     2.999666  s :     2.999666
      pz      :     0.619594  p :     2.351556
      px      :     1.112512
      py      :     0.619450
      dz2     :     0.079233  d :     0.762958
      dxz     :     0.235974
      dyz     :     0.013444
      dx2y2   :     0.198348
      dxy     :     0.235958
      f0      :     0.011388  f :     0.088611
      f+1     :     0.010470
      f-1     :     0.001879
      f+2     :     0.018893
      f-2     :     0.000235
      f+3     :     0.017341
      f-3     :     0.028406
  3 C s       :     2.999645  s :     2.999645
      pz      :     0.619590  p :     2.351604
      px      :     1.112568
      py      :     0.619446
      dz2     :     0.079230  d :     0.762931
      dxz     :     0.235963
      dyz     :     0.013443
      dx2y2   :     0.198345
      dxy     :     0.235950
      f0      :     0.011391  f :     0.088629
      f+1     :     0.010470
      f-1     :     0.001880
      f+2     :     0.018898
      f-2     :     0.000235
      f+3     :     0.017342
      f-3     :     0.028414
  4 C s       :     2.999648  s :     2.999648
      pz      :     0.623263  p :     2.351598
      px      :     0.619440
      py      :     1.108896
      dz2     :     0.081581  d :     0.762924
      dxz     :     0.014902
      dyz     :     0.234823
      dx2y2   :     0.197330
      dxy     :     0.234287
      f0      :     0.010936  f :     0.088622
      f+1     :     0.001745
      f-1     :     0.011307
      f+2     :     0.018688
      f-2     :     0.000789
      f+3     :     0.027996
      f-3     :     0.017161
  5 O s       :     3.400303  s :     3.400303
      pz      :     1.333430  p :     4.282996
      px      :     1.331194
      py      :     1.618372
      dz2     :     0.028566  d :     0.196734
      dxz     :     0.000346
      dyz     :     0.041889
      dx2y2   :     0.085783
      dxy     :     0.040151
      f0      :     0.000611  f :     0.007016
      f+1     :     0.000092
      f-1     :     0.001411
      f+2     :     0.001050
      f-2     :     0.000032
      f+3     :     0.001466
      f-3     :     0.002354
  6 O s       :     3.400325  s :     3.400325
      pz      :     1.331305  p :     4.283021
      px      :     1.620494
      py      :     1.331222
      dz2     :     0.028945  d :     0.196729
      dxz     :     0.040519
      dyz     :     0.000046
      dx2y2   :     0.086764
      dxy     :     0.040456
      f0      :     0.000596  f :     0.007014
      f+1     :     0.001438
      f-1     :     0.000099
      f+2     :     0.000995
      f-2     :     0.000003
      f+3     :     0.002396
      f-3     :     0.001488
  7 O s       :     3.400287  s :     3.400287
      pz      :     1.333409  p :     4.282976
      px      :     1.331181
      py      :     1.618386
      dz2     :     0.028566  d :     0.196735
      dxz     :     0.000346
      dyz     :     0.041888
      dx2y2   :     0.085783
      dxy     :     0.040153
      f0      :     0.000611  f :     0.007017
      f+1     :     0.000092
      f-1     :     0.001411
      f+2     :     0.001050
      f-2     :     0.000032
      f+3     :     0.001466
      f-3     :     0.002355
  8 O s       :     3.400267  s :     3.400267
      pz      :     1.331240  p :     4.282946
      px      :     1.620550
      py      :     1.331156
      dz2     :     0.028945  d :     0.196730
      dxz     :     0.040519
      dyz     :     0.000046
      dx2y2   :     0.086764
      dxy     :     0.040456
      f0      :     0.000596  f :     0.007018
      f+1     :     0.001439
      f-1     :     0.000099
      f+2     :     0.000996
      f-2     :     0.000003
      f+3     :     0.002397
      f-3     :     0.001489
  9 C s       :     2.999655  s :     2.999655
      pz      :     1.108521  p :     2.351583
      px      :     0.619615
      py      :     0.623447
      dz2     :     0.257429  d :     0.762929
      dxz     :     0.234172
      dyz     :     0.234754
      dx2y2   :     0.021536
      dxy     :     0.015037
      f0      :     0.027833  f :     0.088616
      f+1     :     0.029664
      f-1     :     0.029549
      f+2     :     0.000701
      f-2     :     0.000843
      f+3     :     0.000015
      f-3     :     0.000012
 10 C s       :     2.999648  s :     2.999648
      pz      :     1.108524  p :     2.351601
      px      :     0.619611
      py      :     0.623465
      dz2     :     0.257425  d :     0.762918
      dxz     :     0.234162
      dyz     :     0.234748
      dx2y2   :     0.021540
      dxy     :     0.015043
      f0      :     0.027834  f :     0.088623
      f+1     :     0.029665
      f-1     :     0.029549
      f+2     :     0.000703
      f-2     :     0.000845
      f+3     :     0.000015
      f-3     :     0.000012
 11 O s       :     3.400305  s :     3.400305
      pz      :     1.618158  p :     4.282998
      px      :     1.331302
      py      :     1.333539
      dz2     :     0.113829  d :     0.196734
      dxz     :     0.040203
      dyz     :     0.041946
      dx2y2   :     0.000381
      dxy     :     0.000376
      f0      :     0.003724  f :     0.007016
      f+1     :     0.001560
      f-1     :     0.001663
      f+2     :     0.000035
      f-2     :     0.000035
      f+3     :     0.000000
      f-3     :     0.000000
 12 O s       :     3.400283  s :     3.400283
      pz      :     1.618168  p :     4.282970
      px      :     1.331276
      py      :     1.333526
      dz2     :     0.113821  d :     0.196735
      dxz     :     0.040201
      dyz     :     0.041954
      dx2y2   :     0.000383
      dxy     :     0.000377
      f0      :     0.003724  f :     0.007017
      f+1     :     0.001560
      f-1     :     0.001664
      f+2     :     0.000035
      f-2     :     0.000035
      f+3     :     0.000000
      f-3     :     0.000000


                      *****************************
                      * MAYER POPULATION ANALYSIS *
                      *****************************

  NA   - Mulliken gross atomic population
  ZA   - Total nuclear charge
  QA   - Mulliken gross atomic charge
  VA   - Mayer's total valence
  BVA  - Mayer's bonded valence
  FA   - Mayer's free valence

  ATOM       NA         ZA         QA         VA         BVA        FA
  0 Mo    13.8560    14.0000     0.1440     5.4869     5.4869    -0.0000
  1 C      5.8427     6.0000     0.1573     2.9132     2.9132    -0.0000
  2 C      5.8429     6.0000     0.1571     2.9131     2.9131    -0.0000
  3 C      5.8431     6.0000     0.1569     2.9132     2.9132    -0.0000
  4 C      5.8427     6.0000     0.1573     2.9132     2.9132     0.0000
  5 O      8.1813     8.0000    -0.1813     2.2415     2.2415    -0.0000
  6 O      8.1812     8.0000    -0.1812     2.2411     2.2411    -0.0000
  7 O      8.1813     8.0000    -0.1813     2.2415     2.2415    -0.0000
  8 O      8.1810     8.0000    -0.1810     2.2413     2.2413    -0.0000
  9 C      5.8426     6.0000     0.1574     2.9132     2.9132    -0.0000
 10 C      5.8426     6.0000     0.1574     2.9131     2.9131    -0.0000
 11 O      8.1813     8.0000    -0.1813     2.2415     2.2415    -0.0000
 12 O      8.1813     8.0000    -0.1813     2.2415     2.2415    -0.0000

  Mayer bond orders larger than 0.100000
B(  0-Mo,  1-C ) :   0.8432 B(  0-Mo,  2-C ) :   0.8430 B(  0-Mo,  3-C ) :   0.8427 
B(  0-Mo,  4-C ) :   0.8433 B(  0-Mo,  9-C ) :   0.8434 B(  0-Mo, 10-C ) :   0.8432 
B(  1-C ,  5-O ) :   2.1200 B(  2-C ,  6-O ) :   2.1195 B(  3-C ,  8-O ) :   2.1197 
B(  4-C ,  7-O ) :   2.1200 B(  9-C , 11-O ) :   2.1200 B( 10-C , 12-O ) :   2.1200 


-------
TIMINGS
-------

Total SCF time: 0 days 0 hours 1 min 29 sec 

Total time                  ....      89.174 sec
Sum of individual times     ....      88.008 sec  ( 98.7%)

Fock matrix formation       ....      75.585 sec  ( 84.8%)
  Split-RI-J                ....       5.395 sec  (  7.1% of F)
  Chain of spheres X        ....      55.391 sec  ( 73.3% of F)
  XC integration            ....      13.787 sec  ( 18.2% of F)
[...]
     20       0.021232  -0.077242   0.007465  -0.000218  -0.007989  -0.005862
     21       0.003978   0.000979   0.080116  -0.003662  -0.002082   0.002798
     22       0.434502   0.085727   0.001198  -0.372021  -0.192179   0.291048
     23       0.053159  -0.071428   0.000429  -0.033171  -0.016503   0.025411
     24      -0.000076  -0.006430   0.444420   0.024186   0.407710   0.308503
     25       0.077088   0.021378  -0.004710  -0.000360  -0.004738  -0.003486
     26       0.021235  -0.077242   0.007466   0.000235   0.007968   0.005870
     27      -0.003104   0.011980  -0.183317  -0.006978   0.003631  -0.006454
     28      -0.186557   0.007071   0.002029  -0.028127   0.022334  -0.026653
     29       0.062805  -0.438767  -0.011570   0.331401  -0.226659   0.273146
     30      -0.003103   0.011952  -0.183310   0.007003  -0.003523   0.006483
     31      -0.186579   0.007103   0.002032   0.028084  -0.022276   0.026711
     32       0.063022  -0.438905  -0.011597  -0.331310   0.226598  -0.273087
     33      -0.001049   0.008114   0.080239  -0.007277   0.005477  -0.005907
     34       0.071411   0.053195   0.000126  -0.031526   0.020384  -0.025489
     35       0.085791  -0.434222  -0.006205   0.344269  -0.236053   0.292894
     36      -0.001053   0.008110   0.080236   0.007245  -0.005508   0.005877
     37       0.071381   0.053239   0.000131   0.031569  -0.020425   0.025490
     38       0.086044  -0.434358  -0.006252  -0.344171   0.235980  -0.292841
                 24         25         26         27         28         29    
      0       0.000000  -0.000007  -0.000001   0.000054  -0.000015   0.000048
      1      -0.000001  -0.000001   0.000000   0.000037  -0.000076  -0.000202
      2      -0.000006   0.000002  -0.000004   0.000017  -0.000307  -0.000015
      3      -0.028830  -0.450721  -0.155829  -0.471575   0.021689  -0.039204
      4      -0.040968   0.005534   0.005599   0.001625  -0.039982   0.013355
      5       0.473790  -0.013595  -0.047361   0.033375   0.448142  -0.144883
      6       0.000665  -0.007470   0.007606   0.001170   0.007976  -0.007398
      7      -0.015100  -0.463840  -0.115876   0.034124  -0.106380  -0.459728
      8      -0.042029   0.116576  -0.461917  -0.039780  -0.459743   0.103403
      9      -0.000662   0.007540  -0.007588   0.001178   0.007954  -0.007471
     10       0.015086   0.463876   0.115880   0.034198  -0.106383  -0.459695
     11       0.041975  -0.116597   0.461999  -0.039745  -0.459673   0.103382
     12       0.028834   0.450786   0.155871  -0.471494   0.021688  -0.039181
     13       0.040971  -0.005552  -0.005600   0.001641  -0.039996   0.013350
     14      -0.473760   0.013613   0.047303   0.033381   0.448196  -0.144875
     15       0.008827   0.137931   0.047657   0.159909  -0.007353   0.013294
     16       0.013450  -0.001828  -0.001886  -0.000639   0.013348  -0.004306
     17      -0.144854   0.004131   0.014457  -0.011322  -0.151921   0.049115
     18      -0.000179   0.002475  -0.002526  -0.000395  -0.002454   0.002360
     19       0.004625   0.141968   0.035499  -0.011584   0.036102   0.155983
     20       0.012880  -0.035702   0.141380   0.013524   0.156004  -0.035093
     21      -0.008829  -0.137956  -0.047673   0.159886  -0.007353   0.013287
     22      -0.013448   0.001832   0.001885  -0.000638   0.013346  -0.004316
     23       0.144840  -0.004138  -0.014436  -0.011323  -0.151935   0.049111
     24       0.000178  -0.002487   0.002522  -0.000392  -0.002451   0.002367
     25      -0.004621  -0.141980  -0.035500  -0.011605   0.036102   0.155972
     26      -0.012860   0.035710  -0.141409   0.013514   0.155982  -0.035087
     27       0.035561  -0.157907   0.449476   0.470004  -0.030035   0.046639
     28      -0.474611   0.006148   0.038907  -0.035866   0.147411   0.446980
     29      -0.041424  -0.002656   0.012589   0.006567   0.012731   0.041058
     30      -0.035569   0.157842  -0.449531   0.469972  -0.030096   0.046658
     31       0.474637  -0.006153  -0.038912  -0.035864   0.147352   0.446963
     32       0.041493   0.002643  -0.012564   0.006528   0.012747   0.041115
     33      -0.010878   0.048307  -0.137541  -0.159391   0.010152  -0.015810
     34       0.145150  -0.001906  -0.011875   0.012175  -0.049988  -0.151521
     35       0.012965   0.000962  -0.004295  -0.002371  -0.004044  -0.013675
     36       0.010880  -0.048282   0.137561  -0.159381   0.010169  -0.015816
     37      -0.145161   0.001907   0.011876   0.012174  -0.049972  -0.151517
     38      -0.012970  -0.000960   0.004291  -0.002366  -0.004044  -0.013679
                 30         31         32         33         34         35    
      0       0.168388   0.022685  -0.001399  -0.000270  -0.000001   0.000008
      1      -0.015740   0.123992   0.114615   0.000008   0.000256   0.000154
      2       0.016239  -0.113470   0.125014  -0.000020   0.000155  -0.000251
      3      -0.465077  -0.059616   0.006727   0.000984   0.005068   0.002222
      4       0.012643  -0.064091  -0.010026   0.003232   0.513783   0.229800
      5      -0.047984   0.338746  -0.317495   0.000329   0.045012   0.021173
      6      -0.050506  -0.016063   0.003316  -0.564841  -0.002225   0.012854
      7       0.038845  -0.343910  -0.317538   0.006452  -0.000805  -0.000614
      8      -0.036656   0.315314  -0.346358  -0.011034  -0.000514   0.001079
      9      -0.050493  -0.016104   0.003272  -0.564746  -0.002204   0.012880
     10       0.038853  -0.343894  -0.317525   0.006527  -0.000805  -0.000616
     11      -0.036660   0.315297  -0.346342  -0.011028  -0.000514   0.001080
     12      -0.465068  -0.059606   0.006736   0.000984   0.005083   0.002229
     13       0.012657  -0.064091  -0.010021   0.003203   0.513751   0.229806
     14      -0.047982   0.338739  -0.317497   0.000326   0.045014   0.021176
     15       0.140565   0.017588  -0.002500  -0.000743  -0.003810  -0.001670
     16       0.000938  -0.023846  -0.044215  -0.002432  -0.386534  -0.172884
     17       0.014910  -0.106183   0.091671  -0.000247  -0.033896  -0.015950
     18      -0.049516  -0.002629  -0.000785   0.424863   0.001672  -0.009663
     19      -0.010983   0.104086   0.096010  -0.004859   0.000606   0.000462
     20       0.009760  -0.095497   0.104746   0.008321   0.000385  -0.000814
     21       0.140563   0.017584  -0.002503  -0.000742  -0.003821  -0.001675
     22       0.000932  -0.023845  -0.044215  -0.002411  -0.386511  -0.172889
     23       0.014910  -0.106181   0.091671  -0.000245  -0.033898  -0.015952
     24      -0.049509  -0.002612  -0.000768   0.424796   0.001657  -0.009682
     25      -0.010980   0.104082   0.096006  -0.004915   0.000606   0.000464
     26       0.009761  -0.095492   0.104741   0.008317   0.000384  -0.000814
     27      -0.465877  -0.056121  -0.002144   0.001216  -0.004836   0.010766
     28       0.040361  -0.315311  -0.342000   0.001110  -0.021371   0.045436
     29      -0.010362   0.008552  -0.065533  -0.012617   0.229766  -0.513518
     30      -0.465869  -0.056107  -0.002155   0.001215  -0.004822   0.010734
     31       0.040357  -0.315301  -0.341989   0.001107  -0.021396   0.045488
     32      -0.010331   0.008519  -0.065567  -0.012572   0.229754  -0.513470
     33       0.140874   0.015971   0.001559  -0.000918   0.003635  -0.008092
     34      -0.011722   0.091003   0.107209  -0.000837   0.016095  -0.034208
     35      -0.002044   0.044469  -0.023673   0.009495  -0.172852   0.386324
     36       0.140871   0.015969   0.001560  -0.000917   0.003624  -0.008068
     37      -0.011720   0.090996   0.107209  -0.000835   0.016114  -0.034247
     38      -0.002056   0.044476  -0.023656   0.009462  -0.172844   0.386290
                 36         37         38    
      0       0.000000   0.000000   0.000000
      1       0.000000  -0.000000   0.000000
      2       0.000000  -0.000000  -0.000000
      3       0.002520   0.003832  -0.003278
      4       0.256194   0.389361  -0.333086
      5       0.022686   0.034464  -0.029517
      6      -0.467397   0.027631  -0.333835
      7       0.005361  -0.000317   0.003832
      8      -0.009195   0.000547  -0.006576
      9       0.467498  -0.027648   0.333844
     10      -0.005426   0.000321  -0.003876
     11       0.009193  -0.000547   0.006574
     12      -0.002529  -0.003844   0.003288
     13      -0.256232  -0.389370   0.333088
     14      -0.022692  -0.034469   0.029521
     15      -0.001819  -0.002765   0.002297
     16      -0.185032  -0.281193   0.233547
     17      -0.016373  -0.024883   0.020668
     18       0.337431  -0.019947   0.233978
     19      -0.003866   0.000229  -0.002681
     20       0.006629  -0.000392   0.004598
     21       0.001825   0.002774  -0.002304
     22       0.185062   0.281200  -0.233549
     23       0.016378   0.024887  -0.020671
     24      -0.337509   0.019960  -0.233986
     25       0.003912  -0.000232   0.002713
     26      -0.006628   0.000392  -0.004596
     27       0.004377  -0.008756  -0.007006
     28       0.018642  -0.037213  -0.029786
     29      -0.208567   0.416608   0.333112
     30      -0.004365   0.008732   0.006987
     31      -0.018667   0.037264   0.029822
     32       0.208586  -0.416648  -0.333114
     33      -0.003163   0.006318   0.004905
     34      -0.013456   0.026876   0.020866
     35       0.150630  -0.300860  -0.233557
     36       0.003154  -0.006300  -0.004891
     37       0.013474  -0.026913  -0.020892
     38      -0.150645   0.300891   0.233559


-----------
IR SPECTRUM
-----------

 Mode   freq       eps      Int      T**2         TX        TY        TZ
       cm**-1   L/(mol*cm) km/mol    a.u.
----------------------------------------------------------------------------
  6:     57.23   0.000000    0.00  0.000000  ( 0.000032  0.000042  0.000142)
  7:     57.33   0.000000    0.00  0.000000  (-0.000035 -0.000106  0.000065)
  8:     57.38   0.000000    0.00  0.000000  ( 0.000014 -0.000003  0.000012)
  9:     81.06   0.000000    0.00  0.000000  (-0.000003  0.000003  0.000000)
 10:     81.11   0.000000    0.00  0.000000  ( 0.000001 -0.000001 -0.000005)
 11:     81.17   0.000000    0.00  0.000000  ( 0.000000 -0.000003 -0.000004)
 12:     84.39   0.000302    1.53  0.001117  ( 0.026017 -0.002394 -0.020836)
 13:     84.41   0.000303    1.53  0.001120  ( 0.002488  0.033363 -0.000700)
 14:     84.49   0.000302    1.53  0.001117  (-0.020775  0.000997 -0.026157)
 15:    349.50   0.000000    0.00  0.000000  (-0.000002  0.000001 -0.000000)
 16:    349.57   0.000000    0.00  0.000000  ( 0.000000 -0.000000  0.000002)
 17:    349.77   0.000000    0.00  0.000000  ( 0.000000  0.000000 -0.000000)
 18:    371.08   0.010863   54.90  0.009136  ( 0.000427  0.092128  0.025452)
 19:    371.20   0.010867   54.92  0.009136  ( 0.000402  0.025550 -0.092104)
 20:    372.02   0.010829   54.72  0.009083  ( 0.095305 -0.000533  0.000336)
 21:    387.58   0.000000    0.00  0.000000  (-0.000012  0.000017  0.000012)
 22:    388.08   0.000000    0.00  0.000000  (-0.000025 -0.000019 -0.000010)
 23:    403.27   0.000000    0.00  0.000000  (-0.000012 -0.000004  0.000005)
 24:    487.01   0.000000    0.00  0.000000  ( 0.000000  0.000001  0.000006)
 25:    487.09   0.000000    0.00  0.000000  ( 0.000008  0.000000 -0.000002)
 26:    487.14   0.000000    0.00  0.000000  ( 0.000001 -0.000001  0.000004)
 27:    525.19   0.000000    0.00  0.000000  (-0.000062  0.000003  0.000002)
 28:    525.44   0.000000    0.00  0.000000  (-0.000148  0.000349  0.000121)
 29:    525.45   0.000000    0.00  0.000000  ( 0.000069  0.000015 -0.000203)
 30:    612.57   0.020469  103.44  0.010428  (-0.101208  0.009431 -0.009777)
 31:    612.79   0.020399  103.09  0.010388  (-0.013477 -0.074356  0.068394)
 32:    612.82   0.020443  103.31  0.010410  ( 0.000747 -0.069137 -0.075031)
 33:   2059.24   0.414839  2096.43  0.062866  (-0.250462  0.004870 -0.010525)
 34:   2059.53   0.414402  2094.22  0.062791  (-0.000887  0.218668  0.122370)
 35:   2059.56   0.414768  2096.07  0.062845  ( 0.011535  0.122407 -0.218469)
 36:   2084.63   0.000000    0.00  0.000000  ( 0.000022 -0.000019  0.000003)
 37:   2084.77   0.000000    0.00  0.000000  (-0.000008  0.000005 -0.000010)
 38:   2179.94   0.000000    0.00  0.000000  ( 0.000001  0.000000 -0.000000)

* The epsilon (eps) is given for a Dirac delta lineshape.
** The dipole moment derivative (T) already includes vibrational overlap.

The first frequency considered to be a vibration is 6
The total number of vibrations considered is 33


--------------------------
THERMOCHEMISTRY AT 298.15K
--------------------------

Temperature         ... 298.15 K
Pressure            ... 1.00 atm
Total Mass          ... 264.00 AMU

Throughout the following assumptions are being made:
  (1) The electronic state is orbitally nondegenerate
  (2) There are no thermally accessible electronically excited states
  (3) Hindered rotations indicated by low frequency modes are not
      treated as such but are treated as vibrations and this may
      cause some error
  (4) All equations used are the standard statistical mechanics
      equations for an ideal gas
  (5) All vibrations are strictly harmonic

freq.      57.23  E(vib)   ...       0.51 
freq.      57.33  E(vib)   ...       0.51 
freq.      57.38  E(vib)   ...       0.51 
freq.      81.06  E(vib)   ...       0.48 
freq.      81.11  E(vib)   ...       0.48 
freq.      81.17  E(vib)   ...       0.48 
freq.      84.39  E(vib)   ...       0.48 
freq.      84.41  E(vib)   ...       0.48 
freq.      84.49  E(vib)   ...       0.48 
freq.     349.50  E(vib)   ...       0.23 
freq.     349.57  E(vib)   ...       0.23 
freq.     349.77  E(vib)   ...       0.23 
freq.     371.08  E(vib)   ...       0.21 
freq.     371.20  E(vib)   ...       0.21 
freq.     372.02  E(vib)   ...       0.21 
freq.     387.58  E(vib)   ...       0.20 
freq.     388.08  E(vib)   ...       0.20 
freq.     403.27  E(vib)   ...       0.19 
freq.     487.01  E(vib)   ...       0.15 
freq.     487.09  E(vib)   ...       0.15 
freq.     487.14  E(vib)   ...       0.15 
freq.     525.19  E(vib)   ...       0.13 
freq.     525.44  E(vib)   ...       0.13 
freq.     525.45  E(vib)   ...       0.13 
freq.     612.57  E(vib)   ...       0.10 
freq.     612.79  E(vib)   ...       0.10 
freq.     612.82  E(vib)   ...       0.10 
freq.    2059.24  E(vib)   ...       0.00 
freq.    2059.53  E(vib)   ...       0.00 
freq.    2059.56  E(vib)   ...       0.00 
freq.    2084.63  E(vib)   ...       0.00 
freq.    2084.77  E(vib)   ...       0.00 
freq.    2179.94  E(vib)   ...       0.00 

------------
INNER ENERGY
------------

The inner energy is: U= E(el) + E(ZPE) + E(vib) + E(rot) + E(trans)
    E(el)   - is the total energy from the electronic structure calculation
              = E(kin-el) + E(nuc-el) + E(el-el) + E(nuc-nuc)
    E(ZPE)  - the the zero temperature vibrational energy from the frequency calculation
    E(vib)  - the the finite temperature correction to E(ZPE) due to population
              of excited vibrational states
    E(rot)  - is the rotational thermal energy
    E(trans)- is the translational thermal energy

Summary of contributions to the inner energy U:
Electronic energy                ...   -748.29366814 Eh
Zero point energy                ...      0.04878422 Eh      30.61 kcal/mol
Thermal vibrational correction   ...      0.01189823 Eh       7.47 kcal/mol
Thermal rotational correction    ...      0.00141627 Eh       0.89 kcal/mol
Thermal translational correction ...      0.00141627 Eh       0.89 kcal/mol
-----------------------------------------------------------------------
Total thermal energy                   -748.23015315 Eh


Summary of corrections to the electronic energy:
(perhaps to be used in another calculation)
Total thermal correction                  0.01473077 Eh       9.24 kcal/mol
Non-thermal (ZPE) correction              0.04878422 Eh      30.61 kcal/mol
-----------------------------------------------------------------------
Total correction                          0.06351499 Eh      39.86 kcal/mol


--------
ENTHALPY
--------

The enthalpy is H = U + kB*T
                kB is Boltzmann's constant
Total free energy                 ...   -748.23015315 Eh 
Thermal Enthalpy correction       ...      0.00094421 Eh       0.59 kcal/mol
-----------------------------------------------------------------------
Total Enthalpy                    ...   -748.22920894 Eh


Note: Only C1 symmetry has been detected, increase convergence thresholds 
      if your molecule has a higher symmetry. Symmetry factor of 1.0 is   
      used for the rotational entropy correction. 
 

Note: Rotational entropy computed according to Herzberg 
Infrared and Raman Spectra, Chapter V,1, Van Nostrand Reinhold, 1945 
Point Group:  C1, Symmetry Number:   1  
Rotational constants in cm-1:     0.019435     0.019424     0.019422 

Vibrational entropy computed according to the QRRHO of S. Grimme
Chem.Eur.J. 2012 18 9955


-------
ENTROPY
-------

The entropy contributions are T*S = T*(S(el)+S(vib)+S(rot)+S(trans))
     S(el)   - electronic entropy
     S(vib)  - vibrational entropy
     S(rot)  - rotational entropy
     S(trans)- translational entropy
The entropies will be listed as multiplied by the temperature to get
units of energy

Electronic entropy                ...      0.00000000 Eh      0.00 kcal/mol
Vibrational entropy               ...      0.02147279 Eh     13.47 kcal/mol
Rotational entropy                ...      0.01509246 Eh      9.47 kcal/mol
Translational entropy             ...      0.02024613 Eh     12.70 kcal/mol
-----------------------------------------------------------------------
Final entropy term                ...      0.05681138 Eh     35.65 kcal/mol

In case the symmetry of your molecule has not been determined correctly
or in case you have a reason to use a different symmetry number we print 
out the resulting rotational entropy values for sn=1,12 :
 --------------------------------------------------------
|  sn= 1 | S(rot)=       0.01509246 Eh      9.47 kcal/mol|
|  sn= 2 | S(rot)=       0.01443801 Eh      9.06 kcal/mol|
|  sn= 3 | S(rot)=       0.01405517 Eh      8.82 kcal/mol|
|  sn= 4 | S(rot)=       0.01378355 Eh      8.65 kcal/mol|
|  sn= 5 | S(rot)=       0.01357286 Eh      8.52 kcal/mol|
|  sn= 6 | S(rot)=       0.01340072 Eh      8.41 kcal/mol|
|  sn= 7 | S(rot)=       0.01325517 Eh      8.32 kcal/mol|
|  sn= 8 | S(rot)=       0.01312909 Eh      8.24 kcal/mol|
|  sn= 9 | S(rot)=       0.01301788 Eh      8.17 kcal/mol|
|  sn=10 | S(rot)=       0.01291840 Eh      8.11 kcal/mol|
|  sn=11 | S(rot)=       0.01282841 Eh      8.05 kcal/mol|
|  sn=12 | S(rot)=       0.01274626 Eh      8.00 kcal/mol|
 --------------------------------------------------------


-------------------
GIBBS FREE ENERGY
-------------------

The Gibbs free energy is G = H - T*S

Total enthalpy                    ...   -748.22920894 Eh 
Total entropy correction          ...     -0.05681138 Eh    -35.65 kcal/mol
-----------------------------------------------------------------------
Final Gibbs free energy         ...   -748.28602032 Eh

For completeness - the Gibbs free energy minus the electronic energy
G-E(el)                           ...      0.00764783 Eh      4.80 kcal/mol


Timings for individual modules:

Sum of individual times         ...     2097.425 sec (=  34.957 min)
GTO integral calculation        ...       12.185 sec (=   0.203 min)   0.6 %
SCF iterations                  ...      459.535 sec (=   7.659 min)  21.9 %
SCF Gradient evaluation         ...      149.995 sec (=   2.500 min)   7.2 %
Geometry relaxation             ...        0.797 sec (=   0.013 min)   0.0 %
Analytical frequency calculation...     1474.913 sec (=  24.582 min)  70.3 %
                             ****ORCA TERMINATED NORMALLY****
TOTAL RUN TIME: 0 days 0 hours 34 minutes 59 seconds 279 msec
