
                                 *****************
                                 * O   R   C   A *
                                 *****************

                                            #,                                       
                                            ###                                      
                                            ####                                     
                                            #####                                    
                                            ######                                   
                                           ########,                                 
                                     ,,################,,,,,                         
                               ,,#################################,,                 
                          ,,##########################################,,             
                       ,#########################################, ''#####,          
                    ,#############################################,,   '####,        
                  ,##################################################,,,,####,       
                ,###########''''           ''''###############################       
              ,#####''   ,,,,##########,,,,          '''####'''          '####       
            ,##' ,,,,###########################,,,                        '##       
           ' ,,###''''                  '''############,,,                           
         ,,##''                                '''############,,,,        ,,,,,,###''
      ,#''                                            '''#######################'''  
     '                                                          ''''####''''         
             ,#######,   #######,   ,#######,      ##                                
            ,#'     '#,  ##    ##  ,#'     '#,    #''#        ######   ,####,        
            ##       ##  ##   ,#'  ##            #'  '#       #        #'  '#        
            ##       ##  #######   ##           ,######,      #####,   #    #        
            '#,     ,#'  ##    ##  '#,     ,#' ,#      #,         ##   #,  ,#        
             '#######'   ##     ##  '#######'  #'      '#     #####' # '####'        



                  #######################################################
                  #                        -***-                        #
                  #          Department of theory and spectroscopy      #
                  #    Directorship and core code : Frank Neese         #
                  #        Max Planck Institute fuer Kohlenforschung    #
                  #                Kaiser Wilhelm Platz 1               #
                  #                 D-45470 Muelheim/Ruhr               #
                  #                      Germany                        #
                  #                                                     #
                  #                  All rights reserved                #
                  #                        -***-                        #
                  #######################################################



                         Program Version 5.0.4 -  RELEASE  -

 With contributions from (in alphabetic order):
   Daniel Aravena         : Magnetic Suceptibility
   Michael Atanasov       : Ab Initio Ligand Field Theory (pilot matlab implementation)
   Alexander A. Auer      : GIAO ZORA, VPT2 properties, NMR spectrum
   Ute Becker             : Parallelization
   Giovanni Bistoni       : ED, misc. LED, open-shell LED, HFLD
   Martin Brehm           : Molecular dynamics
   Dmytro Bykov           : SCF Hessian
   Vijay G. Chilkuri      : MRCI spin determinant printing, contributions to CSF-ICE
   Dipayan Datta          : RHF DLPNO-CCSD density
   Achintya Kumar Dutta   : EOM-CC, STEOM-CC
   Dmitry Ganyushin       : Spin-Orbit,Spin-Spin,Magnetic field MRCI
   Miquel Garcia          : C-PCM and meta-GGA Hessian, CC/C-PCM, Gaussian charge scheme
   Yang Guo               : DLPNO-NEVPT2, F12-NEVPT2, CIM, IAO-localization
   Andreas Hansen         : Spin unrestricted coupled pair/coupled cluster methods
   Benjamin Helmich-Paris : MC-RPA, TRAH-SCF, COSX integrals
   Lee Huntington         : MR-EOM, pCC
   Robert Izsak           : Overlap fitted RIJCOSX, COSX-SCS-MP3, EOM
   Marcus Kettner         : VPT2
   Christian Kollmar      : KDIIS, OOCD, Brueckner-CCSD(T), CCSD density, CASPT2, CASPT2-K
   Simone Kossmann        : Meta GGA functionals, TD-DFT gradient, OOMP2, MP2 Hessian
   Martin Krupicka        : Initial AUTO-CI
   Lucas Lang             : DCDCAS
   Marvin Lechner         : AUTO-CI (C++ implementation), FIC-MRCC
   Dagmar Lenk            : GEPOL surface, SMD
   Dimitrios Liakos       : Extrapolation schemes; Compound Job, initial MDCI parallelization
   Dimitrios Manganas     : Further ROCIS development; embedding schemes
   Dimitrios Pantazis     : SARC Basis sets
   Anastasios Papadopoulos: AUTO-CI, single reference methods and gradients
   Taras Petrenko         : DFT Hessian,TD-DFT gradient, ASA, ECA, R-Raman, ABS, FL, XAS/XES, NRVS
   Peter Pinski           : DLPNO-MP2, DLPNO-MP2 Gradient
   Christoph Reimann      : Effective Core Potentials
   Marius Retegan         : Local ZFS, SOC
   Christoph Riplinger    : Optimizer, TS searches, QM/MM, DLPNO-CCSD(T), (RO)-DLPNO pert. Triples
   Tobias Risthaus        : Range-separated hybrids, TD-DFT gradient, RPA, STAB
   Michael Roemelt        : Original ROCIS implementation
   Masaaki Saitow         : Open-shell DLPNO-CCSD energy and density
   Barbara Sandhoefer     : DKH picture change effects
   Avijit Sen             : IP-ROCIS
   Kantharuban Sivalingam : CASSCF convergence, NEVPT2, FIC-MRCI
   Bernardo de Souza      : ESD, SOC TD-DFT
   Georgi Stoychev        : AutoAux, RI-MP2 NMR, DLPNO-MP2 response
   Willem Van den Heuvel  : Paramagnetic NMR
   Boris Wezisla          : Elementary symmetry handling
   Frank Wennmohs         : Technical directorship


 We gratefully acknowledge several colleagues who have allowed us to
 interface, adapt or use parts of their codes:
   Stefan Grimme, W. Hujo, H. Kruse, P. Pracht,  : VdW corrections, initial TS optimization,
                  C. Bannwarth, S. Ehlert          DFT functionals, gCP, sTDA/sTD-DF
   Ed Valeev, F. Pavosevic, A. Kumar             : LibInt (2-el integral package), F12 methods
   Garnet Chan, S. Sharma, J. Yang, R. Olivares  : DMRG
   Ulf Ekstrom                                   : XCFun DFT Library
   Mihaly Kallay                                 : mrcc  (arbitrary order and MRCC methods)
   Jiri Pittner, Ondrej Demel                    : Mk-CCSD
   Frank Weinhold                                : gennbo (NPA and NBO analysis)
   Christopher J. Cramer and Donald G. Truhlar   : smd solvation model
   Lars Goerigk                                  : TD-DFT with DH, B97 family of functionals
   V. Asgeirsson, H. Jonsson                     : NEB implementation
   FAccTs GmbH                                   : IRC, NEB, NEB-TS, DLPNO-Multilevel, CI-OPT
                                                   MM, QMMM, 2- and 3-layer-ONIOM, Crystal-QMMM,
                                                   LR-CPCM, SF, NACMEs, symmetry and pop. for TD-DFT,
                                                   nearIR, NL-DFT gradient (VV10), updates on ESD,
                                                   ML-optimized integration grids
   S Lehtola, MJT Oliveira, MAL Marques          : LibXC Library
   Liviu Ungur et al                             : ANISO software


 Your calculation uses the libint2 library for the computation of 2-el integrals
 For citations please refer to: http://libint.valeyev.net

 Your ORCA version has been built with support for libXC version: 5.1.0
 For citations please refer to: https://tddft.org/programs/libxc/

 This ORCA versions uses:
   CBLAS   interface :  Fast vector & matrix operations
   LAPACKE interface :  Fast linear algebra routines
   Shared memory     :  Shared parallel matrices


================================================================================

cite the ECPs for Mo [Def2-ECP] as follows:
Ce-Yb(ecp-28): M. Dolg, H. Stoll, H.Preuss, J. Chem. Phys., 1989, 90, 1730-1734.
Y-Cd(ecp-28), Hf-Hg(ecp-46): D. Andrae,U. Haeussermann, M. Dolg, H. Stoll, H. Preuss, Theor. Chim. Acta, 1990, 77, 123-141.
In-Sb(ecp-28), Tl-Bi(ecp-46): B. Metz, H. Stoll, M. Dolg, J. Chem. Phys., 2000, 113, 2563-2569.
Te-Xe(ecp-28), Po-Rn(ecp-46): K. A. Peterson, D. Figgen, E. Goll, H. Stoll, M. Dolg, J. Chem. Phys., 2003, 119, 11113-11123.
Rb(ecp-28), Cs(ecp-46): T. Leininger, A. Nicklass, W. Kuechle, H. Stoll, M. Dolg, A. Bergner, Chem. Phys. Lett., 1996, 255, 274-280.
Sr(ecp-28), Ba(ecp-46): M. Kaupp, P. V. Schleyer, H. Stoll and H. Preuss, J. Chem. Phys., 1991, 94, 1360-1366.
La(ecp-46): M. Dolg, H. Stoll, A. Savin, H. Preuss, Theor. Chim. Acta, 1989, 75, 173-194.
Lu(ecp-28): X. Cao, M. Dolg, J. Chem. Phys., 2001, 115, 7348-7355.

ECP parameters for Mo [Def2-ECP] have been obtained from:
TURBOMOLE (7.0.2)

----- Orbital basis set information -----
Your calculation utilizes the basis: def2-TZVPD
   F. Weigend and R. Ahlrichs, Phys. Chem. Chem. Phys. 7, 3297 (2005).
   D. Rappoport and F. Furche, J. Chem. Phys. 133 134105 (2010).

----- AuxJ basis set information -----
Your calculation utilizes the auxiliary basis: def2/J
   F. Weigend, Phys. Chem. Chem. Phys. 8, 1057 (2006).

================================================================================
                                        WARNINGS
                       Please study these warnings very carefully!
================================================================================


WARNING: Geometry Optimization
  ===> : Switching off AutoStart
         For restart on a previous wavefunction, please use MOREAD

INFO   : the flag for use of the SHARK integral package has been found!

================================================================================
                                       INPUT FILE
================================================================================
NAME = MoCO5CN.inp
|  1> !B3LYP def2-TZVPD OPT FREQ TightSCF PAL8

|  2> 

|  3> %scf

|  4>   MaxIter 300

|  5> end

|  6> 

|  7> * xyz -1 1 

|  8> Mo        -0.53152        1.02343        0.00977

|  9> C         -0.66263        3.16651       -0.06564

| 10> C         -2.66770        0.88609       -0.17337

| 11> C          1.60465        1.16087        0.19289

| 12> C         -0.40062       -1.11966        0.08512

| 13> O         -0.73146        4.29171       -0.10500

| 14> O          2.72626        1.23312        0.28838

| 15> O         -0.33201       -2.24488        0.12439

| 16> O         -3.78932        0.81394       -0.26890

| 17> C         -0.34118        0.95870       -2.12925

| 18> C         -0.72161        1.08806        2.14875

| 19> O         -0.82201        1.12219        3.27177

| 20> N         -0.23798        0.92361       -3.28106

| 21> **                         ****END OF INPUT****
================================================================================

                       *****************************
                       * Geometry Optimization Run *
                       *****************************

Geometry optimization settings:
Update method            Update   .... BFGS
Choice of coordinates    CoordSys .... Z-matrix Internals
Initial Hessian          InHess   .... Almoef's Model

Convergence Tolerances:
Energy Change            TolE     ....  5.0000e-06 Eh
Max. Gradient            TolMAXG  ....  3.0000e-04 Eh/bohr
RMS Gradient             TolRMSG  ....  1.0000e-04 Eh/bohr
Max. Displacement        TolMAXD  ....  4.0000e-03 bohr
RMS Displacement         TolRMSD  ....  2.0000e-03 bohr
Strict Convergence                ....  False
------------------------------------------------------------------------------
                        ORCA OPTIMIZATION COORDINATE SETUP
------------------------------------------------------------------------------

The optimization will be done in new redundant internal coordinates
Making redundant internal coordinates   ...  (new redundants) done
Evaluating the initial hessian          ...  (Almloef) done
Evaluating the coordinates              ...  done
Calculating the B-matrix                .... done
Calculating the G-matrix                .... done
Diagonalizing the G-matrix              .... done
The first mode is                       ....    3
The number of degrees of freedom        ....   33

    -----------------------------------------------------------------
                    Redundant Internal Coordinates


    -----------------------------------------------------------------
         Definition                    Initial Value    Approx d2E/dq
    -----------------------------------------------------------------
      1. B(C   1,Mo  0)                  2.1484         0.389823   
      2. B(C   2,Mo  0)                  2.1484         0.389823   
      3. B(C   3,Mo  0)                  2.1484         0.389831   
      4. B(C   4,Mo  0)                  2.1484         0.389830   
      5. B(O   5,C   1)                  1.1280         1.465195   
      6. B(O   6,C   3)                  1.1280         1.465229   
      7. B(O   7,C   4)                  1.1280         1.465177   
      8. B(O   8,C   2)                  1.1280         1.465192   
      9. B(C   9,Mo  0)                  2.1484         0.389771   
     10. B(C  10,Mo  0)                  2.1484         0.389864   
     11. B(O  11,C  10)                  1.1280         1.465059   
     12. B(N  12,C   9)                  1.1570         1.317291   
     13. A(C   3,Mo  0,C   9)           89.9255         0.462057   
     14. A(C   2,Mo  0,C   9)           90.0741         0.462055   
     15. A(C   4,Mo  0,C  10)           90.0275         0.462077   
     16. A(C   1,Mo  0,C  10)           89.9736         0.462075   
     17. A(C   4,Mo  0,C   9)           89.9694         0.462056   
     18. A(C   1,Mo  0,C   2)           90.0055         0.462066   
     19. A(C   1,Mo  0,C   3)           89.9918         0.462068   
     20. A(C   3,Mo  0,C   4)           90.0139         0.462070   
     21. A(C   3,Mo  0,C  10)           90.0682         0.462077   
     22. A(C   2,Mo  0,C   4)           89.9887         0.462068   
     23. A(C   2,Mo  0,C  10)           89.9323         0.462075   
     24. A(C   1,Mo  0,C   9)           90.0295         0.462055   
     25. L(Mo  0,C   1,O   5,C  10, 2) 179.9980         0.521308   
     26. L(Mo  0,C   1,O   5,C  10, 1) 179.9882         0.521308   
     27. L(Mo  0,C   2,O   8,C  10, 2) 180.0044         0.521308   
     28. L(Mo  0,C   2,O   8,C  10, 1) 179.9682         0.521308   
     29. L(Mo  0,C   3,O   6,C   9, 1) 179.9668         0.521313   
     30. L(Mo  0,C   3,O   6,C   9, 2) 179.9921         0.521313   
     31. L(Mo  0,C   4,O   7,C   9, 2) 180.0103         0.521309   
     32. L(Mo  0,C   4,O   7,C   9, 1) 179.9858         0.521309   
     33. L(Mo  0,C   9,N  12,C   3, 2) 179.9806         0.511008   
     34. L(Mo  0,C   9,N  12,C   3, 1) 179.9660         0.511008   
     35. L(Mo  0,C  10,O  11,C   2, 2) 180.0168         0.521309   
     36. L(Mo  0,C  10,O  11,C   2, 1) 179.9705         0.521309   
    -----------------------------------------------------------------

Number of atoms                         .... 13
Number of degrees of freedom            .... 36

         *************************************************************
         *                GEOMETRY OPTIMIZATION CYCLE   1            *
         *************************************************************
---------------------------------
CARTESIAN COORDINATES (ANGSTROEM)
---------------------------------
  Mo    -0.531520    1.023430    0.009770
  C     -0.662630    3.166510   -0.065640
  C     -2.667700    0.886090   -0.173370
  C      1.604650    1.160870    0.192890
  C     -0.400620   -1.119660    0.085120
  O     -0.731460    4.291710   -0.105000
  O      2.726260    1.233120    0.288380
  O     -0.332010   -2.244880    0.124390
  O     -3.789320    0.813940   -0.268900
  C     -0.341180    0.958700   -2.129250
  C     -0.721610    1.088060    2.148750
  O     -0.822010    1.122190    3.271770
  N     -0.237980    0.923610   -3.281060

----------------------------
CARTESIAN COORDINATES (A.U.)
----------------------------
  NO LB      ZA    FRAG     MASS         X           Y           Z
   0 Mo   14.0000*   0    95.940   -1.004427    1.934002    0.018463
   1 C     6.0000    0    12.011   -1.252189    5.983837   -0.124042
   2 C     6.0000    0    12.011   -5.041222    1.674467   -0.327622
   3 C     6.0000    0    12.011    3.032349    2.193726    0.364509
   4 C     6.0000    0    12.011   -0.757062   -2.115851    0.160853
   5 O     8.0000    0    15.999   -1.382259    8.110157   -0.198421
   6 O     8.0000    0    15.999    5.151885    2.330259    0.544959
   7 O     8.0000    0    15.999   -0.627408   -4.242208    0.235063
   8 O     8.0000    0    15.999   -7.160777    1.538124   -0.508147
   9 C     6.0000    0    12.011   -0.644737    1.811680   -4.023699
  10 C     6.0000    0    12.011   -1.363645    2.056135    4.060549
  11 O     8.0000    0    15.999   -1.553374    2.120632    6.182749
  12 N     7.0000    0    14.007   -0.449717    1.745370   -6.200305
* core charge reduced due to ECP

--------------------------------
INTERNAL COORDINATES (ANGSTROEM)
--------------------------------
 Mo     0   0   0     0.000000000000     0.00000000     0.00000000
 C      1   0   0     2.148410665259     0.00000000     0.00000000
 C      1   2   0     2.148410465344    90.00552964     0.00000000
 C      1   2   3     2.148405212454    89.99177507   179.99957137
 C      1   2   3     2.148405729977   179.99417080    11.00188281
 O      2   1   3     1.127990167732   179.98815770    96.81379443
 O      4   1   2     1.127983774130   179.96637158   279.48806350
 O      5   1   4     1.127993578616   179.98400957   243.04381773
 O      3   1   2     1.127990703774   179.96808321   264.48136815
 C      1   2   3     2.148447311176    90.02946311    90.07411362
 C      1   2   3     2.148382341530    89.97356575   270.06774763
 O     11   1   2     1.128015486286   179.96815940    68.12702649
 N     10   1   2     1.156956275838   179.96329439   111.94376144

---------------------------
INTERNAL COORDINATES (A.U.)
---------------------------
 Mo     0   0   0     0.000000000000     0.00000000     0.00000000
 C      1   0   0     4.059907780536     0.00000000     0.00000000
 C      1   2   0     4.059907402751    90.00552964     0.00000000
 C      1   2   3     4.059897476227    89.99177507   179.99957137
 C      1   2   3     4.059898454205   179.99417080    11.00188281
 O      2   1   3     2.131592498769   179.98815770    96.81379443
 O      4   1   2     2.131580416612   179.96637158   279.48806350
 O      5   1   4     2.131598944407   179.98400957   243.04381773
 O      3   1   2     2.131593511741   179.96808321   264.48136815
 C      1   2   3     4.059977031282    90.02946311    90.07411362
 C      1   2   3     4.059854256445    89.97356575   270.06774763
 O     11   1   2     2.131640343902   179.96815940    68.12702649
 N     10   1   2     2.186330510255   179.96329439   111.94376144

---------------------
BASIS SET INFORMATION
---------------------
There are 4 groups of distinct atoms

 Group   1 Type Mo  : 7s7p5d1f contracted to 6s4p3d1f pattern {211111/4111/311/1}
 Group   2 Type C   : 12s6p3d1f contracted to 6s3p3d1f pattern {621111/411/111/1}
 Group   3 Type O   : 12s7p3d1f contracted to 6s4p3d1f pattern {621111/4111/111/1}
 Group   4 Type N   : 12s6p3d1f contracted to 6s3p3d1f pattern {621111/411/111/1}

Atom   0Mo   basis set group =>   1
Atom   1C    basis set group =>   2
Atom   2C    basis set group =>   2
Atom   3C    basis set group =>   2
Atom   4C    basis set group =>   2
Atom   5O    basis set group =>   3
Atom   6O    basis set group =>   3
Atom   7O    basis set group =>   3
Atom   8O    basis set group =>   3
Atom   9C    basis set group =>   2
Atom  10C    basis set group =>   2
Atom  11O    basis set group =>   3
Atom  12N    basis set group =>   4
---------------------------------
AUXILIARY/J BASIS SET INFORMATION
---------------------------------
There are 4 groups of distinct atoms

 Group   1 Type Mo  : 11s5p5d3f3g contracted to 8s5p5d2f3g pattern {41111111/11111/11111/21/111}
 Group   2 Type C   : 12s5p4d2f1g contracted to 6s4p3d1f1g pattern {711111/2111/211/2/1}
 Group   3 Type O   : 12s5p4d2f1g contracted to 6s4p3d1f1g pattern {711111/2111/211/2/1}
 Group   4 Type N   : 12s5p4d2f1g contracted to 6s4p3d1f1g pattern {711111/2111/211/2/1}

Atom   0Mo   basis set group =>   1
Atom   1C    basis set group =>   2
Atom   2C    basis set group =>   2
Atom   3C    basis set group =>   2
Atom   4C    basis set group =>   2
Atom   5O    basis set group =>   3
Atom   6O    basis set group =>   3
Atom   7O    basis set group =>   3
Atom   8O    basis set group =>   3
Atom   9C    basis set group =>   2
Atom  10C    basis set group =>   2
Atom  11O    basis set group =>   3
Atom  12N    basis set group =>   4
-------------------------
ECP PARAMETER INFORMATION
-------------------------

 Group 1, Type Mo ECP Def2-ECP (replacing 28 core electrons, lmax=3)

Atom   0Mo   ECP group =>   1



           ************************************************************
           *        Program running with 8 parallel MPI-processes     *
           *              working on a common directory               *
           ************************************************************
------------------------------------------------------------------------------
                           ORCA GTO INTEGRAL CALCULATION
                           -- RI-GTO INTEGRALS CHOSEN --
------------------------------------------------------------------------------
------------------------------------------------------------------------------
                   ___                                                        
                  /   \      - P O W E R E D   B Y -                         
                 /     \                                                     
                 |  |  |   _    _      __       _____    __    __             
                 |  |  |  | |  | |    /  \     |  _  \  |  |  /  |          
                  \  \/   | |  | |   /    \    | | | |  |  | /  /          
                 / \  \   | |__| |  /  /\  \   | |_| |  |  |/  /          
                |  |  |   |  __  | /  /__\  \  |    /   |      \           
                |  |  |   | |  | | |   __   |  |    \   |  |\   \          
                \     /   | |  | | |  |  |  |  | |\  \  |  | \   \       
                 \___/    |_|  |_| |__|  |__|  |_| \__\ |__|  \__/        
                                                                              
                      - O R C A' S   B I G   F R I E N D -                    
                                      &                                       
                       - I N T E G R A L  F E E D E R -                       
                                                                              
 v1 FN, 2020, v2 2021                                                         
------------------------------------------------------------------------------


Reading SHARK input file MoCO5CN.SHARKINP.tmp ... ok
----------------------
SHARK INTEGRAL PACKAGE
----------------------

Number of atoms                             ...     13
Number of basis functions                   ...    499
Number of shells                            ...    175
Maximum angular momentum                    ...      3
Integral batch strategy                     ... SHARK/LIBINT Hybrid
RI-J (if used) integral strategy            ... SPLIT-RIJ (Revised 2003 algorithm where possible)
Printlevel                                  ...      1
Contraction scheme used                     ... SEGMENTED contraction
Coulomb Range Separation                    ... NOT USED
Exchange Range Separation                   ... NOT USED
Finite Nucleus Model                        ... NOT USED
Auxiliary Coulomb fitting basis             ... AVAILABLE
   # of basis functions in Aux-J            ...    677
   # of shells in Aux-J                     ...    203
   Maximum angular momentum in Aux-J        ...      4
Auxiliary J/K fitting basis                 ... NOT available
Auxiliary Correlation fitting basis         ... NOT available
Auxiliary 'external' fitting basis          ... NOT available
Integral threshold                          ...     2.500000e-11
Primitive cut-off                           ...     2.500000e-12
Primitive pair pre-selection threshold      ...     2.500000e-12

Calculating pre-screening integrals         ... done (  0.1 sec) Dimension = 175
Organizing shell pair data                  ... done (  0.2 sec)
Shell pair information
Total number of shell pairs                 ...     15400
Shell pairs after pre-screening             ...     13290
Total number of primitive shell pairs       ...     42179
Primitive shell pairs kept                  ...     26620
          la=0 lb=0:   2458 shell pairs
          la=1 lb=0:   3132 shell pairs
          la=1 lb=1:    984 shell pairs
          la=2 lb=0:   2588 shell pairs
          la=2 lb=1:   1608 shell pairs
          la=2 lb=2:    697 shell pairs
          la=3 lb=0:    762 shell pairs
          la=3 lb=1:    537 shell pairs
          la=3 lb=2:    454 shell pairs
          la=3 lb=3:     70 shell pairs

Calculating one electron integrals          ... done (  0.1 sec)
Calculating ECP integrals                   ... done (  1.3 sec)
Calculating RI/J V-Matrix + Cholesky decomp.... done (  0.1 sec)
Calculating Nuclear repulsion               ... done (  0.0 sec) ENN=    729.101220052310 Eh

SHARK setup successfully completed in   2.1 seconds

Maximum memory used throughout the entire GTOINT-calculation: 25.1 MB


           ************************************************************
           *        Program running with 8 parallel MPI-processes     *
           *              working on a common directory               *
           ************************************************************
-------------------------------------------------------------------------------
                                 ORCA SCF
-------------------------------------------------------------------------------

------------
SCF SETTINGS
------------
Hamiltonian:
 Density Functional     Method          .... DFT(GTOs)
 Exchange Functional    Exchange        .... B88
   X-Alpha parameter    XAlpha          ....  0.666667
   Becke's b parameter  XBeta           ....  0.004200
 Correlation Functional Correlation     .... LYP
 LDA part of GGA corr.  LDAOpt          .... VWN-5
 Gradients option       PostSCFGGA      .... off
 Hybrid DFT is turned on
   Fraction HF Exchange ScalHFX         ....  0.200000
   Scaling of DF-GGA-X  ScalDFX         ....  0.720000
   Scaling of DF-GGA-C  ScalDFC         ....  0.810000
   Scaling of DF-LDA-C  ScalLDAC        ....  1.000000
   Perturbative correction              ....  0.000000
   Density functional embedding theory  .... OFF
   NL short-range parameter             ....  4.800000
 RI-approximation to the Coulomb term is turned on
   Number of AuxJ basis functions       .... 677
   RIJ-COSX (HFX calculated with COS-X)).... on


General Settings:
 Integral files         IntName         .... MoCO5CN
 Hartree-Fock type      HFTyp           .... RHF
 Total Charge           Charge          ....   -1
 Multiplicity           Mult            ....    1
 Number of Electrons    NEL             ....   98
 Basis Dimension        Dim             ....  499
 Nuclear Repulsion      ENuc            ....    729.1012200523 Eh

Convergence Acceleration:
 DIIS                   CNVDIIS         .... on
   Start iteration      DIISMaxIt       ....    12
   Startup error        DIISStart       ....  0.200000
   # of expansion vecs  DIISMaxEq       ....     5
   Bias factor          DIISBfac        ....   1.050
   Max. coefficient     DIISMaxC        ....  10.000
 Trust-Rad. Augm. Hess. CNVTRAH         .... auto
   Auto Start mean grad. ratio tolernc. ....  1.125000
   Auto Start start iteration           ....    20
   Auto Start num. interpolation iter.  ....    10
   Max. Number of Micro iterations      ....    16
   Max. Number of Macro iterations      .... Maxiter - #DIIS iter
   Number of Davidson start vectors     ....     2
   Converg. threshold I  (grad. norm)   ....   1.000e-05
   Converg. threshold II (energy diff.) ....   1.000e-08
   Grad. Scal. Fac. for Micro threshold ....   0.100
   Minimum threshold for Micro iter.    ....   0.010
   NR start threshold (gradient norm)   ....   0.001
   Initial trust radius                 ....   0.400
   Minimum AH scaling param. (alpha)    ....   1.000
   Maximum AH scaling param. (alpha)    .... 1000.000
   Orbital update algorithm             .... Taylor
   White noise on init. David. guess    .... on
   Maximum white noise                  ....   0.010
   Quad. conv. algorithm                .... NR
 SOSCF                  CNVSOSCF        .... off
 Level Shifting         CNVShift        .... on
   Level shift para.    LevelShift      ....    0.2500
   Turn off err/grad.   ShiftErr        ....    0.0010
 Zerner damping         CNVZerner       .... off
 Static damping         CNVDamp         .... on
   Fraction old density DampFac         ....    0.7000
   Max. Damping (<1)    DampMax         ....    0.9800
   Min. Damping (>=0)   DampMin         ....    0.0000
   Turn off err/grad.   DampErr         ....    0.1000
 Fernandez-Rico         CNVRico         .... off

SCF Procedure:
 Maximum # iterations   MaxIter         ....   300
 SCF integral mode      SCFMode         .... Direct
   Integral package                     .... SHARK and LIBINT hybrid scheme
 Reset frequency        DirectResetFreq ....    20
 Integral Threshold     Thresh          ....  2.500e-11 Eh
 Primitive CutOff       TCut            ....  2.500e-12 Eh

Convergence Tolerance:
 Convergence Check Mode ConvCheckMode   .... Total+1el-Energy
 Convergence forced     ConvForced      .... 0
 Energy Change          TolE            ....  1.000e-08 Eh
 1-El. energy change                    ....  1.000e-05 Eh
 DIIS Error             TolErr          ....  5.000e-07


Diagonalization of the overlap matrix:
Smallest eigenvalue                        ... 5.953e-06
Time for diagonalization                   ...    0.069 sec
Threshold for overlap eigenvalues          ... 1.000e-08
Number of eigenvalues below threshold      ... 0
Time for construction of square roots      ...    0.100 sec
Total time needed                          ...    0.171 sec

Time for model grid setup =    0.168 sec

------------------------------
INITIAL GUESS: MODEL POTENTIAL
------------------------------
Loading Hartree-Fock densities                     ... done
  calling C:\orca_5_0_4\orca MoCO5CN_atom42.inp > MoCO5CN_atom42.out in order to generate an atomic fitting density for atom 0 (Mo with ECP) on-the-fly... 
    atom 0 (Mo), assumed electronic state with S=5: 1s2 2s2 2p6 3s2 3p6 4s2 3d10 4p6 5s2 4d4           ... done
Calculating cut-offs                               ... done
Initializing the effective Hamiltonian             ... done
Setting up the integral package (SHARK)            ... done
Starting the Coulomb interaction                   ... done (   0.2 sec)
Reading the grid                                   ... done
Mapping shells                                     ... done
Starting the XC term evaluation                    ... done (   0.2 sec)
  promolecular density results
     # of electrons  =    125.000966655
     EX              =   -197.919424048
     EC              =     -5.018042511
     EX+EC           =   -202.937466559
Transforming the Hamiltonian                       ... done (   0.1 sec)
Diagonalizing the Hamiltonian                      ... done (   0.1 sec)
Back transforming the eigenvectors                 ... done (   0.0 sec)
Now organizing SCF variables                       ... done
                      ------------------
                      INITIAL GUESS DONE (   2.3 sec)
                      ------------------
-------------------
DFT GRID GENERATION
-------------------

General Integration Accuracy     IntAcc      ... 4.388
Radial Grid Type                 RadialGrid  ... OptM3 with GC (2021)
Angular Grid (max. ang.)         AngularGrid ... 4 (Lebedev-302)
Angular grid pruning method      GridPruning ... 4 (adaptive)
Weight generation scheme         WeightScheme... Becke
Basis function cutoff            BFCut       ... 1.0000e-11
Integration weight cutoff        WCut        ... 1.0000e-14
Angular grids for H and He will be reduced by one unit
Partially contracted basis set               ... off
Rotationally invariant grid construction     ... off

Total number of grid points                  ...    87310
Total number of batches                      ...     1374
Average number of points per batch           ...       63
Average number of grid points per atom       ...     6716
Time for grid setup =    0.663 sec

--------------------
COSX GRID GENERATION
--------------------

GRIDX 1
-------
General Integration Accuracy     IntAcc      ... 3.816
Radial Grid Type                 RadialGrid  ... OptM3 with GC (2021)
Angular Grid (max. ang.)         AngularGrid ... 1 (Lebedev-50)
Angular grid pruning method      GridPruning ... 4 (adaptive)
Weight generation scheme         WeightScheme... Becke
Basis function cutoff            BFCut       ... 1.0000e-11
Integration weight cutoff        WCut        ... 1.0000e-14
Angular grids for H and He will be reduced by one unit
Partially contracted basis set               ... on
Rotationally invariant grid construction     ... off

Total number of grid points                  ...    10800
Total number of batches                      ...      174
Average number of points per batch           ...       62
Average number of grid points per atom       ...      831
UseSFitting                                  ... on

GRIDX 2
-------
General Integration Accuracy     IntAcc      ... 4.020
Radial Grid Type                 RadialGrid  ... OptM3 with GC (2021)
Angular Grid (max. ang.)         AngularGrid ... 2 (Lebedev-110)
Angular grid pruning method      GridPruning ... 4 (adaptive)
Weight generation scheme         WeightScheme... Becke
Basis function cutoff            BFCut       ... 1.0000e-11
Integration weight cutoff        WCut        ... 1.0000e-14
Angular grids for H and He will be reduced by one unit
Partially contracted basis set               ... on
Rotationally invariant grid construction     ... off

Total number of grid points                  ...    29039
Total number of batches                      ...      460
Average number of points per batch           ...       63
Average number of grid points per atom       ...     2234
UseSFitting                                  ... on

GRIDX 3
-------
General Integration Accuracy     IntAcc      ... 4.338
Radial Grid Type                 RadialGrid  ... OptM3 with GC (2021)
Angular Grid (max. ang.)         AngularGrid ... 3 (Lebedev-194)
Angular grid pruning method      GridPruning ... 4 (adaptive)
Weight generation scheme         WeightScheme... Becke
Basis function cutoff            BFCut       ... 1.0000e-11
Integration weight cutoff        WCut        ... 1.0000e-14
Angular grids for H and He will be reduced by one unit
Partially contracted basis set               ... on
Rotationally invariant grid construction     ... off

Total number of grid points                  ...    62016
Total number of batches                      ...      975
Average number of points per batch           ...       63
Average number of grid points per atom       ...     4770
UseSFitting                                  ... on

Time for X-Grid setup             =    1.750 sec

--------------
SCF ITERATIONS
--------------
ITER       Energy         Delta-E        Max-DP      RMS-DP      [F,P]     Damp
               ***  Starting incremental Fock matrix formation  ***
  0   -727.3970785253   0.000000000000 0.18141756  0.00200442  0.4314434 0.7000
  1   -727.6351109074  -0.238032382145 0.20043885  0.00202022  0.2781475 0.7000
                               ***Turning on DIIS***
  2   -727.7016051673  -0.066494259936 0.09383017  0.00098028  0.1809792 0.7000
  3   -727.7470691740  -0.045464006680 0.03320735  0.00025952  0.1267167 0.7000
  4   -727.7825267680  -0.035457594024 0.08801138  0.00086963  0.0926933 0.0000
  5   -727.8609226388  -0.078395870706 0.02136586  0.00022566  0.0157094 0.0000
  6   -727.8615474132  -0.000624774469 0.00747294  0.00009176  0.0055591 0.0000
  7   -727.8617281879  -0.000180774679 0.00752951  0.00007286  0.0018489 0.0000
  8   -727.8617480113  -0.000019823354 0.00543176  0.00005355  0.0006573 0.0000
               *** Restarting incremental Fock matrix formation ***
                                   *** Resetting DIIS ***
  9   -727.8617697323  -0.000021721028 0.00790139  0.00003604  0.0012710 0.0000
 10   -727.8617614205   0.000008311813 0.00203111  0.00001075  0.0022351 0.0000
 11   -727.8617717595  -0.000010338982 0.00048831  0.00000552  0.0008914 0.0000
 12   -727.8617737896  -0.000002030145 0.00131393  0.00000566  0.0000734 0.0000
 13   -727.8617737736   0.000000015970 0.00024051  0.00000254  0.0001339 0.0000
 14   -727.8617738209  -0.000000047225 0.00042872  0.00000444  0.0000083 0.0000
 15   -727.8617738205   0.000000000395 0.00040084  0.00000275  0.0000103 0.0000
                 **** Energy Check signals convergence ****

               *****************************************************
               *                     SUCCESS                       *
               *           SCF CONVERGED AFTER  16 CYCLES          *
               *****************************************************

Old exchange energy                            =    -17.150932310 Eh
New exchange energy                            =    -17.150921772 Eh
Exchange energy change after final integration =      0.000010538 Eh
Total energy after final integration           =   -727.861763274 Eh
Final COS-X integration done in                =    10.295 sec

----------------
TOTAL SCF ENERGY
----------------

Total Energy       :         -727.86176327 Eh          -19806.12550 eV

Components:
Nuclear Repulsion  :          729.10122005 Eh           19839.85284 eV
Electronic Energy  :        -1456.96298333 Eh          -39645.97834 eV
One Electron Energy:        -2480.16574128 Eh          -67488.74088 eV
Two Electron Energy:         1023.20275796 Eh           27842.76254 eV
Max COSX asymmetry :            0.00000111 Eh               0.00003 eV

Virial components:
Potential Energy   :        -1408.45628552 Eh          -38326.04399 eV
Kinetic Energy     :          680.59452224 Eh           18519.91848 eV
Virial Ratio       :            2.06944993


DFT components:
N(Alpha)           :       48.999883267731 electrons
N(Beta)            :       48.999883267731 electrons
N(Total)           :       97.999766535462 electrons
E(X)               :      -68.609819257727 Eh       
E(C)               :       -4.031690954052 Eh       
E(XC)              :      -72.641510211779 Eh       
DFET-embed. en.    :        0.000000000000 Eh       

---------------
SCF CONVERGENCE
---------------

  Last Energy change         ...    8.6865e-09  Tolerance :   1.0000e-08
  Last MAX-Density change    ...    0.0000e+00  Tolerance :   1.0000e-07
  Last RMS-Density change    ...    0.0000e+00  Tolerance :   5.0000e-09
  Last DIIS Error            ...    2.6648e-06  Tolerance :   5.0000e-07

             **** THE GBW FILE WAS UPDATED (MoCO5CN.gbw) ****
             **** DENSITY MoCO5CN.scfp WAS UPDATED ****
             **** ENERGY FILE WAS UPDATED (MoCO5CN.en.tmp) ****
             **** THE GBW FILE WAS UPDATED (MoCO5CN.gbw) ****
             **** DENSITY MoCO5CN.scfp WAS UPDATED ****
----------------
ORBITAL ENERGIES
----------------

  NO   OCC          E(Eh)            E(eV) 
   0   2.0000     -19.082522      -519.2618 
   1   2.0000     -19.082513      -519.2616 
   2   2.0000     -19.082503      -519.2613 
   3   2.0000     -19.082494      -519.2611 
   4   2.0000     -19.069415      -518.9052 
   5   2.0000     -14.110492      -383.9660 
   6   2.0000     -10.156023      -276.3594 
   7   2.0000     -10.156017      -276.3593 
   8   2.0000     -10.156009      -276.3590 
   9   2.0000     -10.156000      -276.3588 
  10   2.0000     -10.144940      -276.0579 
  11   2.0000      -9.996728      -272.0248 
  12   2.0000      -2.414037       -65.6893 
  13   2.0000      -1.415856       -38.5274 
  14   2.0000      -1.415850       -38.5272 
  15   2.0000      -1.409502       -38.3545 
  16   2.0000      -1.025419       -27.9031 
  17   2.0000      -1.025174       -27.8964 
  18   2.0000      -1.025171       -27.8963 
  19   2.0000      -1.025070       -27.8936 
  20   2.0000      -1.014859       -27.6157 
  21   2.0000      -0.704268       -19.1641 
  22   2.0000      -0.454039       -12.3550 
  23   2.0000      -0.443063       -12.0564 
  24   2.0000      -0.441464       -12.0128 
  25   2.0000      -0.441460       -12.0127 
  26   2.0000      -0.434303       -11.8180 
  27   2.0000      -0.350827        -9.5465 
  28   2.0000      -0.350743        -9.5442 
  29   2.0000      -0.345927        -9.4132 
  30   2.0000      -0.345923        -9.4130 
  31   2.0000      -0.343985        -9.3603 
  32   2.0000      -0.343531        -9.3480 
  33   2.0000      -0.343523        -9.3477 
  34   2.0000      -0.340349        -9.2614 
  35   2.0000      -0.337468        -9.1830 
  36   2.0000      -0.332391        -9.0448 
  37   2.0000      -0.332391        -9.0448 
  38   2.0000      -0.316282        -8.6065 
  39   2.0000      -0.300884        -8.1875 
  40   2.0000      -0.274860        -7.4793 
  41   2.0000      -0.274840        -7.4788 
  42   2.0000      -0.247888        -6.7454 
  43   2.0000      -0.160716        -4.3733 
  44   2.0000      -0.160714        -4.3732 
  45   2.0000      -0.160243        -4.3604 
  46   2.0000      -0.087794        -2.3890 
  47   2.0000      -0.068617        -1.8672 
  48   2.0000      -0.068602        -1.8668 
  49   0.0000       0.080761         2.1976 
  50   0.0000       0.084283         2.2935 
  51   0.0000       0.084307         2.2941 
  52   0.0000       0.101423         2.7599 
  53   0.0000       0.106373         2.8946 
  54   0.0000       0.120858         3.2887 
  55   0.0000       0.120868         3.2890 
  56   0.0000       0.125537         3.4160 
  57   0.0000       0.125541         3.4161 
  58   0.0000       0.128452         3.4953 
  59   0.0000       0.133413         3.6303 
  60   0.0000       0.138524         3.7694 
  61   0.0000       0.153409         4.1745 
  62   0.0000       0.154632         4.2078 
  63   0.0000       0.154634         4.2078 
  64   0.0000       0.164196         4.4680 
  65   0.0000       0.165518         4.5040 
  66   0.0000       0.165522         4.5041 
  67   0.0000       0.166642         4.5346 
  68   0.0000       0.178083         4.8459 
  69   0.0000       0.178086         4.8460 
  70   0.0000       0.184034         5.0078 
  71   0.0000       0.186931         5.0867 
  72   0.0000       0.193678         5.2702 
  73   0.0000       0.196789         5.3549 
  74   0.0000       0.202407         5.5078 
  75   0.0000       0.202423         5.5082 
  76   0.0000       0.224150         6.0994 
  77   0.0000       0.226539         6.1644 
  78   0.0000       0.233215         6.3461 
  79   0.0000       0.233226         6.3464 
  80   0.0000       0.239642         6.5210 
  81   0.0000       0.239657         6.5214 
  82   0.0000       0.246307         6.7023 
  83   0.0000       0.247671         6.7395 
  84   0.0000       0.267167         7.2700 
  85   0.0000       0.267564         7.2808 
  86   0.0000       0.267604         7.2819 
  87   0.0000       0.274722         7.4756 
  88   0.0000       0.291995         7.9456 
  89   0.0000       0.303684         8.2637 
  90   0.0000       0.320203         8.7132 
  91   0.0000       0.331557         9.0221 
  92   0.0000       0.331564         9.0223 
  93   0.0000       0.333665         9.0795 
  94   0.0000       0.343448         9.3457 
  95   0.0000       0.346724         9.4348 
  96   0.0000       0.346735         9.4352 
  97   0.0000       0.358357         9.7514 
  98   0.0000       0.358377         9.7519 
  99   0.0000       0.364278         9.9125 
 100   0.0000       0.370130        10.0718 
 101   0.0000       0.381561        10.3828 
 102   0.0000       0.381562        10.3828 
 103   0.0000       0.388522        10.5722 
 104   0.0000       0.394099        10.7240 
 105   0.0000       0.396700        10.7948 
 106   0.0000       0.396728        10.7955 
 107   0.0000       0.403811        10.9883 
 108   0.0000       0.411395        11.1946 
 109   0.0000       0.430643        11.7184 
 110   0.0000       0.438422        11.9301 
 111   0.0000       0.443299        12.0628 
 112   0.0000       0.443308        12.0630 
 113   0.0000       0.447415        12.1748 
 114   0.0000       0.451690        12.2911 
 115   0.0000       0.454617        12.3708 
 116   0.0000       0.454674        12.3723 
 117   0.0000       0.456263        12.4156 
 118   0.0000       0.456283        12.4161 
 119   0.0000       0.457026        12.4363 
 120   0.0000       0.458327        12.4717 
 121   0.0000       0.463614        12.6156 
 122   0.0000       0.465013        12.6537 
 123   0.0000       0.471051        12.8180 
 124   0.0000       0.505615        13.7585 
 125   0.0000       0.540759        14.7148 
 126   0.0000       0.540832        14.7168 
 127   0.0000       0.550450        14.9785 
 128   0.0000       0.551383        15.0039 
 129   0.0000       0.556339        15.1387 
 130   0.0000       0.556350        15.1390 
 131   0.0000       0.573674        15.6105 
 132   0.0000       0.573700        15.6112 
 133   0.0000       0.594243        16.1702 
 134   0.0000       0.605740        16.4830 
 135   0.0000       0.606302        16.4983 
 136   0.0000       0.606312        16.4986 
 137   0.0000       0.611663        16.6442 
 138   0.0000       0.612678        16.6718 
 139   0.0000       0.620115        16.8742 
 140   0.0000       0.622140        16.9293 
 141   0.0000       0.622160        16.9298 
 142   0.0000       0.634808        17.2740 
 143   0.0000       0.655765        17.8443 
 144   0.0000       0.663671        18.0594 
 145   0.0000       0.663708        18.0604 
 146   0.0000       0.668221        18.1832 
 147   0.0000       0.668298        18.1853 
 148   0.0000       0.669504        18.2181 
 149   0.0000       0.671603        18.2752 
 150   0.0000       0.675321        18.3764 
 151   0.0000       0.676317        18.4035 
 152   0.0000       0.676326        18.4038 
 153   0.0000       0.677017        18.4226 
 154   0.0000       0.686085        18.6693 
 155   0.0000       0.686142        18.6709 
 156   0.0000       0.689291        18.7566 
 157   0.0000       0.690314        18.7844 
 158   0.0000       0.698724        19.0133 
 159   0.0000       0.715394        19.4669 
 160   0.0000       0.715413        19.4674 
 161   0.0000       0.719145        19.5689 
 162   0.0000       0.737419        20.0662 
 163   0.0000       0.747600        20.3432 
 164   0.0000       0.761563        20.7232 
 165   0.0000       0.778146        21.1744 
 166   0.0000       0.788338        21.4518 
 167   0.0000       0.790676        21.5154 
 168   0.0000       0.790706        21.5162 
 169   0.0000       0.802855        21.8468 
 170   0.0000       0.813998        22.1500 
 171   0.0000       0.824948        22.4480 
 172   0.0000       0.824978        22.4488 
 173   0.0000       0.829277        22.5658 
 174   0.0000       0.829505        22.5720 
 175   0.0000       0.830134        22.5891 
 176   0.0000       0.830358        22.5952 
 177   0.0000       0.846689        23.0396 
 178   0.0000       0.865442        23.5499 
 179   0.0000       0.865489        23.5512 
 180   0.0000       0.868333        23.6285 
 181   0.0000       0.889258        24.1979 
 182   0.0000       0.889283        24.1986 
 183   0.0000       0.896872        24.4051 
 184   0.0000       0.927265        25.2322 
 185   0.0000       0.942798        25.6548 
 186   0.0000       0.944051        25.6889 
 187   0.0000       0.962477        26.1903 
 188   0.0000       0.962498        26.1909 
 189   0.0000       0.974459        26.5164 
 190   0.0000       0.976110        26.5613 
 191   0.0000       0.983894        26.7731 
 192   0.0000       0.984299        26.7841 
 193   0.0000       0.984721        26.7956 
 194   0.0000       0.984753        26.7965 
 195   0.0000       0.985197        26.8086 
 196   0.0000       0.997989        27.1567 
 197   0.0000       1.002426        27.2774 
 198   0.0000       1.002433        27.2776 
 199   0.0000       1.006128        27.3781 
 200   0.0000       1.007389        27.4124 
 201   0.0000       1.013373        27.5753 
 202   0.0000       1.013988        27.5920 
 203   0.0000       1.014016        27.5928 
 204   0.0000       1.027479        27.9591 
 205   0.0000       1.027497        27.9596 
 206   0.0000       1.044894        28.4330 
 207   0.0000       1.049602        28.5611 
 208   0.0000       1.053787        28.6750 
 209   0.0000       1.053839        28.6764 
 210   0.0000       1.054288        28.6886 
 211   0.0000       1.060764        28.8649 
 212   0.0000       1.071968        29.1697 
 213   0.0000       1.074056        29.2265 
 214   0.0000       1.074110        29.2280 
 215   0.0000       1.084009        29.4974 
 216   0.0000       1.084046        29.4984 
 217   0.0000       1.086304        29.5598 
 218   0.0000       1.101909        29.9845 
 219   0.0000       1.147491        31.2248 
 220   0.0000       1.147545        31.2263 
 221   0.0000       1.158849        31.5339 
 222   0.0000       1.198213        32.6050 
 223   0.0000       1.215199        33.0672 
 224   0.0000       1.218167        33.1480 
 225   0.0000       1.249302        33.9952 
 226   0.0000       1.262251        34.3476 
 227   0.0000       1.262278        34.3483 
 228   0.0000       1.288911        35.0730 
 229   0.0000       1.293336        35.1935 
 230   0.0000       1.323051        36.0020 
 231   0.0000       1.323061        36.0023 
 232   0.0000       1.341969        36.5168 
 233   0.0000       1.372990        37.3610 
 234   0.0000       1.380867        37.5753 
 235   0.0000       1.393163        37.9099 
 236   0.0000       1.393222        37.9115 
 237   0.0000       1.406643        38.2767 
 238   0.0000       1.406666        38.2773 
 239   0.0000       1.437251        39.1096 
 240   0.0000       1.440310        39.1928 
 241   0.0000       1.523344        41.4523 
 242   0.0000       1.523378        41.4532 
 243   0.0000       1.544526        42.0287 
 244   0.0000       1.555599        42.3300 
 245   0.0000       1.634815        44.4856 
 246   0.0000       1.647239        44.8237 
 247   0.0000       1.680416        45.7265 
 248   0.0000       1.680421        45.7266 
 249   0.0000       1.706157        46.4269 
 250   0.0000       1.750277        47.6275 
 251   0.0000       1.770178        48.1690 
 252   0.0000       1.770474        48.1770 
 253   0.0000       1.770480        48.1772 
 254   0.0000       1.782589        48.5067 
 255   0.0000       1.826959        49.7141 
 256   0.0000       1.834979        49.9323 
 257   0.0000       1.843564        50.1659 
 258   0.0000       1.843594        50.1667 
 259   0.0000       1.845411        50.2162 
 260   0.0000       1.845418        50.2164 
 261   0.0000       1.858565        50.5741 
 262   0.0000       1.859281        50.5936 
 263   0.0000       1.874237        51.0006 
 264   0.0000       1.874267        51.0014 
 265   0.0000       1.880784        51.1787 
 266   0.0000       1.894659        51.5563 
 267   0.0000       1.894723        51.5580 
 268   0.0000       1.901016        51.7293 
 269   0.0000       1.901843        51.7518 
 270   0.0000       1.912812        52.0503 
 271   0.0000       1.916056        52.1385 
 272   0.0000       1.932272        52.5798 
 273   0.0000       1.932296        52.5804 
 274   0.0000       1.949820        53.0573 
 275   0.0000       1.962978        53.4153 
 276   0.0000       1.989924        54.1486 
 277   0.0000       1.995869        54.3104 
 278   0.0000       1.995962        54.3129 
 279   0.0000       1.998453        54.3807 
 280   0.0000       2.004880        54.5555 
 281   0.0000       2.022783        55.0427 
 282   0.0000       2.022916        55.0463 
 283   0.0000       2.029437        55.2238 
 284   0.0000       2.029462        55.2245 
 285   0.0000       2.076158        56.4951 
 286   0.0000       2.084541        56.7233 
 287   0.0000       2.093859        56.9768 
 288   0.0000       2.093881        56.9774 
 289   0.0000       2.150573        58.5201 
 290   0.0000       2.169671        59.0398 
 291   0.0000       2.223263        60.4980 
 292   0.0000       2.240247        60.9602 
 293   0.0000       2.240380        60.9638 
 294   0.0000       2.254208        61.3401 
 295   0.0000       2.280023        62.0426 
 296   0.0000       2.280082        62.0442 
 297   0.0000       2.288613        62.2763 
 298   0.0000       2.294557        62.4381 
 299   0.0000       2.333911        63.5089 
 300   0.0000       2.333930        63.5095 
 301   0.0000       2.355018        64.0833 
 302   0.0000       2.382831        64.8401 
 303   0.0000       2.382857        64.8408 
 304   0.0000       2.398328        65.2618 
 305   0.0000       2.492630        67.8279 
 306   0.0000       2.552921        69.4685 
 307   0.0000       2.560550        69.6761 
 308   0.0000       2.560602        69.6775 
 309   0.0000       2.560628        69.6782 
 310   0.0000       2.574736        70.0621 
 311   0.0000       2.624891        71.4269 
 312   0.0000       2.721001        74.0422 
 313   0.0000       2.721029        74.0430 
 314   0.0000       2.788263        75.8725 
 315   0.0000       2.798356        76.1471 
 316   0.0000       2.798361        76.1473 
 317   0.0000       2.799785        76.1860 
 318   0.0000       2.818620        76.6986 
 319   0.0000       2.839709        77.2724 
 320   0.0000       2.839763        77.2739 
 321   0.0000       2.856032        77.7166 
 322   0.0000       2.856047        77.7170 
 323   0.0000       2.891085        78.6704 
 324   0.0000       2.914850        79.3171 
 325   0.0000       2.929539        79.7168 
 326   0.0000       2.929564        79.7175 
 327   0.0000       2.956587        80.4528 
 328   0.0000       2.956876        80.4607 
 329   0.0000       2.960511        80.5596 
 330   0.0000       2.960554        80.5608 
 331   0.0000       2.967567        80.7516 
 332   0.0000       2.971936        80.8705 
 333   0.0000       2.973692        80.9183 
 334   0.0000       2.978825        81.0579 
 335   0.0000       2.978863        81.0590 
 336   0.0000       2.979989        81.0896 
 337   0.0000       2.989115        81.3380 
 338   0.0000       3.001661        81.6793 
 339   0.0000       3.001696        81.6803 
 340   0.0000       3.010192        81.9115 
 341   0.0000       3.025152        82.3186 
 342   0.0000       3.066319        83.4388 
 343   0.0000       3.081763        83.8590 
 344   0.0000       3.081786        83.8596 
 345   0.0000       3.102739        84.4298 
 346   0.0000       3.105747        84.5117 
 347   0.0000       3.105774        84.5124 
 348   0.0000       3.124955        85.0344 
 349   0.0000       3.125017        85.0360 
 350   0.0000       3.128396        85.1280 
 351   0.0000       3.145845        85.6028 
 352   0.0000       3.165586        86.1400 
 353   0.0000       3.209729        87.3412 
 354   0.0000       3.215630        87.5017 
 355   0.0000       3.215651        87.5023 
 356   0.0000       3.222416        87.6864 
 357   0.0000       3.277912        89.1965 
 358   0.0000       3.277960        89.1978 
 359   0.0000       3.278436        89.2108 
 360   0.0000       3.280446        89.2655 
 361   0.0000       3.289268        89.5055 
 362   0.0000       3.304770        89.9274 
 363   0.0000       3.336015        90.7776 
 364   0.0000       3.363647        91.5295 
 365   0.0000       3.363734        91.5318 
 366   0.0000       3.405551        92.6698 
 367   0.0000       3.429369        93.3179 
 368   0.0000       3.429547        93.3227 
 369   0.0000       3.435260        93.4782 
 370   0.0000       3.438086        93.5551 
 371   0.0000       3.438112        93.5558 
 372   0.0000       3.443169        93.6934 
 373   0.0000       3.485409        94.8428 
 374   0.0000       3.485442        94.8437 
 375   0.0000       3.488619        94.9301 
 376   0.0000       3.503140        95.3253 
 377   0.0000       3.504201        95.3542 
 378   0.0000       3.504223        95.3548 
 379   0.0000       3.539620        96.3180 
 380   0.0000       3.553908        96.7068 
 381   0.0000       3.556513        96.7776 
 382   0.0000       3.556789        96.7852 
 383   0.0000       3.645148        99.1895 
 384   0.0000       3.645202        99.1910 
 385   0.0000       3.672148        99.9242 
 386   0.0000       3.683553       100.2346 
 387   0.0000       3.683607       100.2360 
 388   0.0000       3.686616       100.3179 
 389   0.0000       3.718809       101.1939 
 390   0.0000       3.731488       101.5390 
 391   0.0000       3.771774       102.6352 
 392   0.0000       3.807860       103.6171 
 393   0.0000       3.807881       103.6177 
 394   0.0000       3.847099       104.6849 
 395   0.0000       3.857854       104.9776 
 396   0.0000       3.857965       104.9806 
 397   0.0000       3.874891       105.4411 
 398   0.0000       3.928241       106.8929 
 399   0.0000       3.928287       106.8941 
 400   0.0000       3.940968       107.2392 
 401   0.0000       3.944018       107.3222 
 402   0.0000       4.164424       113.3197 
 403   0.0000       4.164436       113.3201 
 404   0.0000       4.325211       117.6950 
 405   0.0000       4.478802       121.8744 
 406   0.0000       4.480034       121.9079 
 407   0.0000       4.524447       123.1165 
 408   0.0000       4.524498       123.1178 
 409   0.0000       4.524988       123.1312 
 410   0.0000       4.640530       126.2753 
 411   0.0000       4.701920       127.9457 
 412   0.0000       4.724326       128.5554 
 413   0.0000       4.724374       128.5568 
 414   0.0000       4.725907       128.5985 
 415   0.0000       4.792806       130.4189 
 416   0.0000       4.812028       130.9419 
 417   0.0000       4.932026       134.2072 
 418   0.0000       4.963637       135.0674 
 419   0.0000       5.201173       141.5311 
 420   0.0000       5.201191       141.5316 
 421   0.0000       5.214105       141.8830 
 422   0.0000       5.214120       141.8834 
 423   0.0000       5.214208       141.8858 
 424   0.0000       5.215023       141.9080 
 425   0.0000       5.215031       141.9082 
 426   0.0000       5.215265       141.9146 
 427   0.0000       5.215271       141.9147 
 428   0.0000       5.216675       141.9529 
 429   0.0000       5.224504       142.1660 
 430   0.0000       5.224531       142.1667 
 431   0.0000       5.633695       153.3006 
 432   0.0000       5.637062       153.3923 
 433   0.0000       5.637075       153.3926 
 434   0.0000       5.638069       153.4197 
 435   0.0000       5.640994       153.4992 
 436   0.0000       5.641002       153.4995 
 437   0.0000       5.643814       153.5760 
 438   0.0000       5.648446       153.7020 
 439   0.0000       5.677773       154.5001 
 440   0.0000       5.679357       154.5432 
 441   0.0000       5.746791       156.3781 
 442   0.0000       5.746820       156.3789 
 443   0.0000       5.760024       156.7382 
 444   0.0000       6.083544       165.5416 
 445   0.0000       6.343652       172.6195 
 446   0.0000       6.366113       173.2307 
 447   0.0000       6.366116       173.2308 
 448   0.0000       6.390312       173.8892 
 449   0.0000       6.403927       174.2597 
 450   0.0000       6.403942       174.2601 
 451   0.0000       6.421946       174.7500 
 452   0.0000       6.443953       175.3489 
 453   0.0000       6.443985       175.3497 
 454   0.0000       6.451319       175.5493 
 455   0.0000       6.516758       177.3300 
 456   0.0000       6.516790       177.3309 
 457   0.0000       6.527979       177.6354 
 458   0.0000       6.542687       178.0356 
 459   0.0000       6.545062       178.1002 
 460   0.0000       6.549857       178.2307 
 461   0.0000       6.549918       178.2323 
 462   0.0000       6.571087       178.8084 
 463   0.0000       6.572037       178.8342 
 464   0.0000       6.595936       179.4845 
 465   0.0000       6.763116       184.0337 
 466   0.0000       6.777981       184.4382 
 467   0.0000       6.777993       184.4386 
 468   0.0000       6.781524       184.5347 
 469   0.0000       6.788862       184.7343 
 470   0.0000       6.943614       188.9453 
 471   0.0000       6.949601       189.1083 
 472   0.0000       6.949677       189.1103 
 473   0.0000       6.962303       189.4539 
 474   0.0000       6.970386       189.6739 
 475   0.0000       6.972429       189.7294 
 476   0.0000       6.972438       189.7297 
 477   0.0000       6.979261       189.9153 
 478   0.0000       6.979278       189.9158 
 479   0.0000       6.980370       189.9455 
 480   0.0000       7.313589       199.0129 
 481   0.0000       7.313610       199.0135 
 482   0.0000       7.321186       199.2196 
 483   0.0000       7.326192       199.3558 
 484   0.0000       7.337793       199.6715 
 485   0.0000      23.049042       627.1963 
 486   0.0000      23.063063       627.5779 
 487   0.0000      23.081224       628.0720 
 488   0.0000      23.081354       628.0756 
 489   0.0000      23.099633       628.5730 
 490   0.0000      23.183222       630.8475 
 491   0.0000      25.148516       684.3259 
 492   0.0000      32.680289       889.2759 
 493   0.0000      44.240201      1203.8371 
 494   0.0000      44.287026      1205.1112 
 495   0.0000      44.287062      1205.1122 
 496   0.0000      44.367557      1207.3026 
 497   0.0000      44.389116      1207.8893 
 498   0.0000      84.595494      2301.9604 

                    ********************************
                    * MULLIKEN POPULATION ANALYSIS *
                    ********************************

-----------------------
MULLIKEN ATOMIC CHARGES
-----------------------
   0 Mo:   -0.057269
   1 C :    0.169957
   2 C :    0.169894
   3 C :    0.170953
   4 C :    0.170335
   5 O :   -0.246916
   6 O :   -0.247010
   7 O :   -0.246917
   8 O :   -0.247048
   9 C :    0.145350
  10 C :    0.116795
  11 O :   -0.280437
  12 N :   -0.617686
Sum of atomic charges:   -1.0000000

--------------------------------
MULLIKEN REDUCED ORBITAL CHARGES
--------------------------------
  0 Mos       :     2.515543  s :     2.515543
      pz      :     2.326828  p :     6.911582
      px      :     2.292552
      py      :     2.292202
      dz2     :     0.512069  d :     4.610196
      dxz     :     1.257385
      dyz     :     1.278167
      dx2y2   :     0.364242
      dxy     :     1.198332
      f0      :     0.005402  f :     0.019949
      f+1     :     0.003261
      f-1     :     0.003213
      f+2     :     0.000633
      f-2     :     0.000039
      f+3     :     0.003662
      f-3     :     0.003740
  1 C s       :     3.575286  s :     3.575286
      pz      :     0.632048  p :     2.130355
      px      :     0.620502
      py      :     0.877805
      dz2     :     0.008896  d :     0.107589
      dxz     :     0.007397
      dyz     :     0.042218
      dx2y2   :     0.003694
      dxy     :     0.045384
      f0      :     0.002237  f :     0.016813
      f+1     :     0.000397
      f-1     :     0.001953
      f+2     :     0.003563
      f-2     :     0.000156
      f+3     :     0.005362
      f-3     :     0.003145
  2 C s       :     3.575418  s :     3.575418
      pz      :     0.632926  p :     2.130440
      px      :     0.877127
      py      :     0.620387
      dz2     :     0.009783  d :     0.107436
      dxz     :     0.040775
      dyz     :     0.007710
      dx2y2   :     0.004060
      dxy     :     0.045109
      f0      :     0.002160  f :     0.016812
      f+1     :     0.002093
      f-1     :     0.000379
      f+2     :     0.003516
      f-2     :     0.000242
      f+3     :     0.003130
      f-3     :     0.005292
  3 C s       :     3.574645  s :     3.574645
      pz      :     0.634990  p :     2.130177
      px      :     0.874740
      py      :     0.620447
      dz2     :     0.008553  d :     0.107412
      dxz     :     0.042600
      dyz     :     0.007830
      dx2y2   :     0.003447
      dxy     :     0.044981
      f0      :     0.002165  f :     0.016813
      f+1     :     0.002088
      f-1     :     0.000374
      f+2     :     0.003523
      f-2     :     0.000253
      f+3     :     0.003125
      f-3     :     0.005285
  4 C s       :     3.575012  s :     3.575012
      pz      :     0.632895  p :     2.130254
      px      :     0.620352
      py      :     0.877007
      dz2     :     0.008390  d :     0.107585
      dxz     :     0.007503
      dyz     :     0.042919
      dx2y2   :     0.003496
      dxy     :     0.045277
      f0      :     0.002239  f :     0.016814
      f+1     :     0.000395
      f-1     :     0.001952
      f+2     :     0.003567
      f-2     :     0.000160
      f+3     :     0.005360
      f-3     :     0.003142
  5 O s       :     3.893827  s :     3.893827
      pz      :     1.508818  p :     4.300163
      px      :     1.498220
      py      :     1.293125
      dz2     :     0.002673  d :     0.051235
      dxz     :    -0.000115
      dyz     :     0.020352
      dx2y2   :     0.008218
      dxy     :     0.020107
      f0      :     0.000267  f :     0.001691
      f+1     :     0.000046
      f-1     :     0.000110
      f+2     :     0.000430
      f-2     :     0.000009
      f+3     :     0.000645
      f-3     :     0.000184
  6 O s       :     3.893781  s :     3.893781
      pz      :     1.508192  p :     4.300250
      px      :     1.294007
      py      :     1.498052
      dz2     :     0.002863  d :     0.051287
      dxz     :     0.020193
      dyz     :     0.000015
      dx2y2   :     0.008248
      dxy     :     0.019968
      f0      :     0.000255  f :     0.001691
      f+1     :     0.000132
      f-1     :     0.000044
      f+2     :     0.000419
      f-2     :     0.000019
      f+3     :     0.000186
      f-3     :     0.000636
  7 O s       :     3.893868  s :     3.893868
      pz      :     1.509166  p :     4.300128
      px      :     1.498171
      py      :     1.292792
      dz2     :     0.002617  d :     0.051230
      dxz     :    -0.000111
      dyz     :     0.020424
      dx2y2   :     0.008198
      dxy     :     0.020101
      f0      :     0.000267  f :     0.001691
      f+1     :     0.000046
      f-1     :     0.000109
      f+2     :     0.000431
      f-2     :     0.000009
      f+3     :     0.000645
      f-3     :     0.000184
  8 O s       :     3.893740  s :     3.893740
      pz      :     1.507344  p :     4.300325
      px      :     1.294946
      py      :     1.498035
      dz2     :     0.002997  d :     0.051292
      dxz     :     0.020006
      dyz     :     0.000016
      dx2y2   :     0.008308
      dxy     :     0.019965
      f0      :     0.000253  f :     0.001691
      f+1     :     0.000136
      f-1     :     0.000043
      f+2     :     0.000417
      f-2     :     0.000020
      f+3     :     0.000187
      f-3     :     0.000635
  9 C s       :     3.349305  s :     3.349305
      pz      :     0.844425  p :     2.489739
      px      :     0.822743
      py      :     0.822571
      dz2     :    -0.048073  d :     0.003708
      dxz     :     0.023255
      dyz     :     0.024899
      dx2y2   :     0.001335
      dxy     :     0.002291
      f0      :     0.002805  f :     0.011898
      f+1     :     0.004349
      f-1     :     0.004424
      f+2     :     0.000147
      f-2     :     0.000163
      f+3     :     0.000004
      f-3     :     0.000004
 10 C s       :     3.582670  s :     3.582670
      pz      :     0.876189  p :     2.179427
      px      :     0.652407
      py      :     0.650831
      dz2     :     0.007728  d :     0.104640
      dxz     :     0.043911
      dyz     :     0.044791
      dx2y2   :     0.001831
      dxy     :     0.006379
      f0      :     0.004911  f :     0.016468
      f+1     :     0.005561
      f-1     :     0.005596
      f+2     :     0.000183
      f-2     :     0.000207
      f+3     :     0.000005
      f-3     :     0.000005
 11 O s       :     3.908610  s :     3.908610
      pz      :     1.292094  p :     4.319313
      px      :     1.512823
      py      :     1.514397
      dz2     :     0.009991  d :     0.050828
      dxz     :     0.020267
      dyz     :     0.020478
      dx2y2   :     0.000062
      dxy     :     0.000030
      f0      :     0.000299  f :     0.001686
      f+1     :     0.000669
      f-1     :     0.000686
      f+2     :     0.000015
      f-2     :     0.000016
      f+3     :     0.000000
      f-3     :     0.000000
 12 N s       :     4.288221  s :     4.288221
      pz      :     1.043543  p :     3.286938
      px      :     1.121418
      py      :     1.121977
      dz2     :     0.005711  d :     0.040780
      dxz     :     0.017278
      dyz     :     0.017519
      dx2y2   :     0.000054
      dxy     :     0.000218
      f0      :    -0.000024  f :     0.001746
      f+1     :     0.000845
      f-1     :     0.000885
      f+2     :     0.000020
      f-2     :     0.000020
      f+3     :     0.000000
      f-3     :     0.000000


                     *******************************
                     * LOEWDIN POPULATION ANALYSIS *
                     *******************************

----------------------
LOEWDIN ATOMIC CHARGES
----------------------
   0 Mo:    0.538114
   1 C :   -0.239915
   2 C :   -0.239934
   3 C :   -0.239831
   4 C :   -0.239872
   5 O :    0.065912
   6 O :    0.065976
   7 O :    0.065945
   8 O :    0.065879
   9 C :   -0.493921
  10 C :   -0.286187
  11 O :    0.037550
  12 N :   -0.099715

-------------------------------
LOEWDIN REDUCED ORBITAL CHARGES
-------------------------------
  0 Mos       :     1.909701  s :     1.909701
      pz      :     2.205828  p :     6.576220
      px      :     2.185271
      py      :     2.185122
      dz2     :     0.821836  d :     4.933570
      dxz     :     1.126215
      dyz     :     1.134612
      dx2y2   :     0.760780
      dxy     :     1.090127
      f0      :     0.011833  f :     0.042396
      f+1     :     0.006614
      f-1     :     0.006491
      f+2     :     0.001105
      f-2     :     0.000060
      f+3     :     0.008055
      f-3     :     0.008237
  1 C s       :     3.010389  s :     3.010389
      pz      :     0.624209  p :     2.352886
      px      :     0.615759
      py      :     1.112918
      dz2     :     0.084405  d :     0.786905
      dxz     :     0.015851
      dyz     :     0.246589
      dx2y2   :     0.200002
      dxy     :     0.240057
      f0      :     0.011646  f :     0.089735
      f+1     :     0.001952
      f-1     :     0.010620
      f+2     :     0.018973
      f-2     :     0.000563
      f+3     :     0.028333
      f-3     :     0.017647
  2 C s       :     3.010375  s :     3.010375
      pz      :     0.626716  p :     2.352923
      px      :     1.110413
      py      :     0.615794
      dz2     :     0.086905  d :     0.786903
      dxz     :     0.244983
      dyz     :     0.017212
      dx2y2   :     0.199357
      dxy     :     0.238446
      f0      :     0.011275  f :     0.089734
      f+1     :     0.011299
      f-1     :     0.001852
      f+2     :     0.018781
      f-2     :     0.001023
      f+3     :     0.017535
      f-3     :     0.027969
  3 C s       :     3.010412  s :     3.010412
      pz      :     0.628347  p :     2.352827
      px      :     1.108626
      py      :     0.615854
      dz2     :     0.085448  d :     0.786857
      dxz     :     0.246415
      dyz     :     0.016814
      dx2y2   :     0.199353
      dxy     :     0.238826
      f0      :     0.011256  f :     0.089736
      f+1     :     0.011343
      f-1     :     0.001838
      f+2     :     0.018751
      f-2     :     0.001060
      f+3     :     0.017542
      f-3     :     0.027947
  4 C s       :     3.010407  s :     3.010407
      pz      :     0.624876  p :     2.352842
      px      :     0.615640
      py      :     1.112326
      dz2     :     0.083803  d :     0.786888
      dxz     :     0.015766
      dyz     :     0.247104
      dx2y2   :     0.200049
      dxy     :     0.240166
      f0      :     0.011638  f :     0.089734
      f+1     :     0.001945
      f-1     :     0.010640
      f+2     :     0.018965
      f-2     :     0.000574
      f+3     :     0.028332
      f-3     :     0.017641
  5 O s       :     3.400806  s :     3.400806
      pz      :     1.356243  p :     4.326511
      px      :     1.347611
      py      :     1.622657
      dz2     :     0.028966  d :     0.199741
      dxz     :     0.000264
      dyz     :     0.043582
      dx2y2   :     0.085208
      dxy     :     0.041722
      f0      :     0.000621  f :     0.007030
      f+1     :     0.000103
      f-1     :     0.001427
      f+2     :     0.001019
      f-2     :     0.000021
      f+3     :     0.001493
      f-3     :     0.002346
  6 O s       :     3.400806  s :     3.400806
      pz      :     1.358319  p :     4.326473
      px      :     1.620508
      py      :     1.347646
      dz2     :     0.028409  d :     0.199715
      dxz     :     0.044927
      dyz     :     0.000463
      dx2y2   :     0.084326
      dxy     :     0.041590
      f0      :     0.000632  f :     0.007030
      f+1     :     0.001407
      f-1     :     0.000098
      f+2     :     0.001056
      f-2     :     0.000045
      f+3     :     0.002313
      f-3     :     0.001479
  7 O s       :     3.400810  s :     3.400810
      pz      :     1.356495  p :     4.326493
      px      :     1.347568
      py      :     1.622430
      dz2     :     0.028781  d :     0.199723
      dxz     :     0.000236
      dyz     :     0.043771
      dx2y2   :     0.085199
      dxy     :     0.041736
      f0      :     0.000621  f :     0.007029
      f+1     :     0.000103
      f-1     :     0.001427
      f+2     :     0.001017
      f-2     :     0.000020
      f+3     :     0.001493
      f-3     :     0.002348
  8 O s       :     3.400805  s :     3.400805
      pz      :     1.357712  p :     4.326528
      px      :     1.621196
      py      :     1.347620
      dz2     :     0.028857  d :     0.199758
      dxz     :     0.044427
      dyz     :     0.000570
      dx2y2   :     0.084429
      dxy     :     0.041475
      f0      :     0.000632  f :     0.007030
      f+1     :     0.001408
      f-1     :     0.000098
      f+2     :     0.001060
      f-2     :     0.000047
      f+3     :     0.002309
      f-3     :     0.001477
  9 C s       :     2.986676  s :     2.986676
      pz      :     1.195790  p :     2.772110
      px      :     0.789618
      py      :     0.786702
      dz2     :     0.250718  d :     0.681210
      dxz     :     0.198766
      dyz     :     0.197595
      dx2y2   :     0.020337
      dxy     :     0.013794
      f0      :     0.019383  f :     0.053925
      f+1     :     0.016835
      f-1     :     0.016735
      f+2     :     0.000419
      f-2     :     0.000528
      f+3     :     0.000011
      f-3     :     0.000014
 10 C s       :     3.003836  s :     3.003836
      pz      :     1.102618  p :     2.378548
      px      :     0.639619
      py      :     0.636311
      dz2     :     0.262160  d :     0.814435
      dxz     :     0.256779
      dyz     :     0.256653
      dx2y2   :     0.022194
      dxy     :     0.016649
      f0      :     0.027734  f :     0.089369
      f+1     :     0.029956
      f-1     :     0.030083
      f+2     :     0.000721
      f-2     :     0.000847
      f+3     :     0.000012
      f-3     :     0.000015
 11 O s       :     3.401117  s :     3.401117
      pz      :     1.620250  p :     4.344498
      px      :     1.363038
      py      :     1.361211
      dz2     :     0.111974  d :     0.209689
      dxz     :     0.049090
      dyz     :     0.047713
      dx2y2   :     0.000452
      dxy     :     0.000460
      f0      :     0.003698  f :     0.007146
      f+1     :     0.001732
      f-1     :     0.001643
      f+2     :     0.000037
      f-2     :     0.000037
      f+3     :     0.000000
      f-3     :     0.000000
 12 N s       :     3.317474  s :     3.317474
      pz      :     1.483631  p :     3.564599
      px      :     1.042061
      py      :     1.038907
      dz2     :     0.112147  d :     0.203077
      dxz     :     0.045771
      dyz     :     0.044312
      dx2y2   :     0.000419
      dxy     :     0.000429
      f0      :     0.006846  f :     0.014564
      f+1     :     0.003843
      f-1     :     0.003708
      f+2     :     0.000083
      f-2     :     0.000084
      f+3     :     0.000000
      f-3     :     0.000000


                      *****************************
                      * MAYER POPULATION ANALYSIS *
                      *****************************

  NA   - Mulliken gross atomic population
  ZA   - Total nuclear charge
  QA   - Mulliken gross atomic charge
  VA   - Mayer's total valence
  BVA  - Mayer's bonded valence
  FA   - Mayer's free valence

  ATOM       NA         ZA         QA         VA         BVA        FA
  0 Mo    14.0573    14.0000    -0.0573     6.0025     6.0025    -0.0000
  1 C      5.8300     6.0000     0.1700     2.6752     2.6752    -0.0000
  2 C      5.8301     6.0000     0.1699     2.6750     2.6750    -0.0000
  3 C      5.8290     6.0000     0.1710     2.6748     2.6748    -0.0000
  4 C      5.8297     6.0000     0.1703     2.6752     2.6752    -0.0000
  5 O      8.2469     8.0000    -0.2469     2.1653     2.1653    -0.0000
  6 O      8.2470     8.0000    -0.2470     2.1659     2.1659    -0.0000
  7 O      8.2469     8.0000    -0.2469     2.1655     2.1655    -0.0000
  8 O      8.2470     8.0000    -0.2470     2.1653     2.1653    -0.0000
  9 C      5.8547     6.0000     0.1453     2.2899     2.2899    -0.0000
 10 C      5.8832     6.0000     0.1168     3.0147     3.0147    -0.0000
 11 O      8.2804     8.0000    -0.2804     2.1280     2.1280    -0.0000
 12 N      7.6177     7.0000    -0.6177     1.8802     1.8802    -0.0000

  Mayer bond orders larger than 0.100000
B(  0-Mo,  1-C ) :   0.8169 B(  0-Mo,  2-C ) :   0.8170 B(  0-Mo,  3-C ) :   0.8169 
B(  0-Mo,  4-C ) :   0.8169 B(  0-Mo,  9-C ) :   0.9422 B(  0-Mo, 10-C ) :   1.0567 
B(  0-Mo, 12-N ) :   0.3407 B(  1-C ,  5-O ) :   2.0095 B(  1-C ,  9-C ) :  -0.1034 
B(  2-C ,  8-O ) :   2.0096 B(  2-C ,  9-C ) :  -0.1035 B(  3-C ,  6-O ) :   2.0101 
B(  3-C ,  9-C ) :  -0.1037 B(  4-C ,  7-O ) :   2.0097 B(  4-C ,  9-C ) :  -0.1032 
B(  9-C , 12-N ) :   1.6949 B( 10-C , 11-O ) :   1.9764 

-------
TIMINGS
-------

Total SCF time: 0 days 0 hours 1 min 34 sec 

[...]
     20       0.007701  -0.001928  -0.034705  -0.026779   0.012085  -0.204546
     21      -0.215939  -0.024493  -0.089858   0.023918   0.021914  -0.030826
     22      -0.012712   0.442415   0.007122  -0.368397  -0.346392   0.000760
     23      -0.018932  -0.011447  -0.007906   0.007595  -0.008308   0.009609
     24      -0.011889   0.007676  -0.430684   0.352182  -0.367637   0.012939
     25       0.216734   0.090061  -0.025104   0.023362  -0.023277   0.006373
     26      -0.007656  -0.001924  -0.040428   0.034535  -0.052761   0.209500
     27      -0.000438  -0.002664  -0.075733  -0.001417   0.003057  -0.447633
     28      -0.000084   0.078609  -0.002364  -0.001372  -0.001624  -0.056272
     29       0.000158  -0.002000  -0.006526  -0.001484  -0.008767  -0.035809
     30      -0.000023   0.007717   0.244432  -0.001656   0.011254  -0.199737
     31       0.000078  -0.246048   0.007654  -0.002037  -0.004874  -0.025419
     32       0.000039   0.008481   0.021375   0.000122  -0.107972  -0.021245
     33       0.000018  -0.003507  -0.108057   0.000767   0.008403   0.108163
     34      -0.000075   0.108882  -0.003373   0.000972  -0.002357   0.013470
     35       0.000034  -0.003107  -0.009616   0.000537  -0.104055   0.004702
     36       0.000173   0.001391   0.044073   0.000490   0.000346   0.135509
     37       0.000059  -0.045168   0.001388   0.000287   0.000020   0.017105
     38       0.000216   0.002125   0.003658  -0.001515  -0.011129   0.012139
                 24         25         26         27         28         29    
      0      -0.002253  -0.012584  -0.000149   0.000069  -0.000023   0.005242
      1       0.017963   0.004206  -0.000049  -0.000010  -0.004708   0.000246
      2      -0.001329   0.137376  -0.000006  -0.000376   0.000112   0.000379
      3      -0.055016  -0.010501  -0.474669  -0.040816   0.036045  -0.419472
      4       0.043884  -0.054435  -0.030158   0.016305  -0.007243  -0.027434
      5       0.551343   0.154999  -0.041124   0.469789  -0.211671  -0.044058
      6      -0.008359   0.049183  -0.027395   0.040811  -0.025891   0.018133
      7       0.068986   0.009041   0.476106  -0.013603   0.421126   0.011541
      8       0.030329   0.158835  -0.016881  -0.467763  -0.004670  -0.214766
      9      -0.002602  -0.074995   0.027933   0.041206  -0.024554  -0.018916
     10       0.067293   0.000586  -0.476619  -0.013315   0.420551   0.023500
     11      -0.036619   0.139286   0.016630  -0.468455  -0.022569   0.211618
     12       0.043227  -0.017949   0.475982  -0.040844  -0.001773  -0.419656
     13       0.014290   0.063244   0.030686   0.011581   0.005143  -0.027037
     14      -0.556114   0.144784   0.041433   0.470156   0.213416  -0.026849
     15       0.018243   0.009634   0.146460   0.014363  -0.011072   0.141080
     16       0.025316  -0.071808   0.009629  -0.002938   0.000702   0.008794
     17      -0.207782  -0.055025   0.012637  -0.167454   0.060580   0.014391
     18      -0.001235  -0.068115  -0.009620  -0.016503   0.008376   0.006108
     19      -0.028928  -0.006370   0.146899   0.004623  -0.141444  -0.007521
     20       0.013642  -0.060940  -0.005180   0.166563   0.007140  -0.060262
     21      -0.018817   0.001069  -0.147000   0.014663  -0.000340   0.141127
     22       0.040378   0.068745  -0.009325  -0.006493  -0.002901   0.008553
     23       0.206782  -0.057700  -0.012786  -0.167339  -0.061067   0.009468
     24       0.000984   0.078154   0.009899  -0.012280   0.008872  -0.004692
     25      -0.029461   0.002694  -0.146789   0.004958  -0.141595  -0.004108
     26      -0.011447  -0.051550   0.005367   0.166749   0.002062   0.061417
     27       0.054955  -0.001113   0.000024  -0.000463   0.001485   0.070602
     28      -0.449154  -0.000199  -0.000094  -0.000214  -0.071424   0.001553
     29       0.017618   0.048971  -0.000016  -0.000089   0.002308   0.006121
     30       0.024007   0.057600  -0.000634  -0.001492   0.013584   0.667651
     31      -0.201065  -0.019277  -0.000300  -0.001787  -0.670353   0.015725
     32       0.011211  -0.625942  -0.000044   0.000527   0.020973   0.058973
     33      -0.013424   0.057944   0.000198   0.000389  -0.004454  -0.219791
     34       0.108090  -0.019523   0.000174   0.000659   0.220871  -0.005153
     35      -0.001158  -0.661610   0.000013   0.000668  -0.007139  -0.019054
     36      -0.016497  -0.005593   0.000025   0.000177  -0.000475  -0.021640
     37       0.135980   0.002078  -0.000012   0.000032   0.021907  -0.000483
     38      -0.006178   0.054044  -0.000018  -0.000067  -0.000669  -0.001723
                 30         31         32         33         34         35    
      0      -0.153723  -0.039252  -0.015147  -0.000211   0.001050   0.000137
      1       0.038743  -0.154544   0.005486   0.000073   0.000123  -0.001063
      2      -0.015137   0.001476   0.167604   0.002434   0.000099   0.000053
      3       0.484807   0.141207   0.041568  -0.007007  -0.002492   0.034360
      4       0.013042   0.066018  -0.011504   0.114931   0.029939  -0.562989
      5       0.008146   0.120013  -0.462960  -0.003953  -0.001040   0.018284
      6       0.070945  -0.008800   0.036547  -0.114838   0.561201   0.030332
      7      -0.155089   0.482651  -0.015428  -0.007196   0.035070   0.002567
      8      -0.098436  -0.051896  -0.465173  -0.009242   0.044257   0.002367
      9       0.051633  -0.015177   0.045327   0.114878   0.561682   0.030075
     10      -0.147924   0.484629  -0.014749   0.007278   0.035524   0.002595
     11       0.120306   0.018227  -0.464277   0.010381   0.051685   0.002742
     12       0.477787   0.160794   0.041733   0.007038  -0.002528   0.034286
     13       0.015301   0.059441  -0.016020  -0.114949   0.030674  -0.563415
     14       0.078433  -0.098659  -0.461506   0.004023  -0.001191   0.020635
     15      -0.148442  -0.047989  -0.013324   0.005148   0.002040  -0.025555
     16      -0.024561   0.044911   0.007527  -0.084464  -0.022467   0.422679
     17      -0.002965  -0.035868   0.145863   0.002990   0.000957  -0.016804
     18       0.048190   0.025365  -0.009629  -0.084416  -0.422043  -0.022601
     19       0.049902  -0.148308   0.004933  -0.005339  -0.026579  -0.002112
     20      -0.027852  -0.002620   0.146795  -0.007535  -0.035821  -0.001896
     21      -0.146503  -0.053413  -0.012862  -0.005179   0.002099  -0.026051
     22      -0.024965   0.046365   0.000307   0.084492  -0.023005   0.423215
     23      -0.022406   0.024639   0.145700  -0.002863   0.000741  -0.012473
     24       0.043194   0.023779  -0.015445   0.084356  -0.421149  -0.022755
     25       0.051850  -0.147819   0.004598   0.005286  -0.026415  -0.002114
     26       0.032243   0.016650   0.146323   0.006906  -0.036297  -0.001939
     27       0.142985   0.036354   0.002024   0.001292  -0.006762  -0.000786
     28      -0.036044   0.143222  -0.001076  -0.000462  -0.000808   0.006795
     29       0.013477  -0.001171  -0.020181  -0.015422  -0.000557  -0.000249
     30       0.542999   0.137877   0.008919   0.068534  -0.002684  -0.000310
     31      -0.137026   0.544135  -0.004411  -0.022994  -0.000316   0.002627
     32       0.052467  -0.004019  -0.089676  -0.773143  -0.000053  -0.000032
     33      -0.168247  -0.042718   0.008276  -0.049505   0.001126   0.000133
     34       0.042503  -0.168727  -0.002409   0.016587   0.000131  -0.001111
     35      -0.015910   0.001163  -0.096728   0.558217  -0.000029  -0.000008
     36      -0.041164  -0.010473   0.001826  -0.001839  -0.000564  -0.000064
     37       0.010368  -0.041190  -0.000477   0.000644  -0.000065   0.000572
     38      -0.003723   0.000371  -0.021406   0.021459  -0.000044  -0.000044
                 36         37         38    
      0      -0.000008  -0.000252  -0.000145
      1      -0.000007   0.000092   0.000053
      2       0.000025   0.002772   0.001696
      3      -0.024812   0.023535  -0.002952
      4       0.406299  -0.388545   0.047527
      5      -0.013954   0.015757  -0.001093
      6       0.405209   0.387750  -0.047443
      7       0.025394   0.024402  -0.002958
      8       0.032675   0.033709  -0.003298
      9      -0.403555  -0.387453   0.047258
     10      -0.025548  -0.024470   0.003015
     11      -0.036539  -0.032681   0.004813
     12       0.024839  -0.024006   0.002867
     13      -0.405671   0.388433  -0.047499
     14       0.014222  -0.011229   0.002211
     15       0.017583  -0.016410   0.001971
     16      -0.290270   0.271387  -0.032286
     17       0.011569  -0.011149   0.001119
     18       0.288449   0.270612  -0.032145
     19       0.018195   0.017060  -0.002034
     20       0.024475   0.022636  -0.002897
     21      -0.017882   0.016769  -0.001978
     22       0.289936  -0.271341   0.032291
     23      -0.008541   0.007662  -0.001125
     24      -0.289359  -0.270771   0.032206
     25      -0.018181  -0.017022   0.002018
     26      -0.024962  -0.023686   0.002607
     27      -0.000020   0.008668   0.065393
     28       0.000001  -0.003042  -0.022926
     29       0.000045  -0.100980  -0.760972
     30       0.000032   0.020476  -0.004694
     31       0.000010  -0.006872   0.001570
     32      -0.000163  -0.230642   0.052727
     33      -0.000014  -0.014082   0.002746
     34       0.000002   0.004719  -0.000921
     35       0.000128   0.158742  -0.030944
     36      -0.000003  -0.007258  -0.054028
     37      -0.000003   0.002543   0.018938
     38      -0.000033   0.084475   0.629131


-----------
IR SPECTRUM
-----------

 Mode   freq       eps      Int      T**2         TX        TY        TZ
       cm**-1   L/(mol*cm) km/mol    a.u.
----------------------------------------------------------------------------
  6:     41.22   0.000000    0.00  0.000000  (-0.000132  0.000009  0.000144)
  7:     57.26   0.000110    0.56  0.000599  ( 0.008201  0.023069 -0.000018)
  8:     57.51   0.000115    0.58  0.000623  (-0.023507  0.008060 -0.002253)
  9:     75.31   0.000072    0.36  0.000296  ( 0.009480  0.014371  0.000205)
 10:     75.35   0.000072    0.37  0.000300  ( 0.014306 -0.009595  0.001776)
 11:     75.54   0.000017    0.09  0.000072  (-0.000944  0.000624  0.008409)
 12:     80.00   0.000000    0.00  0.000000  (-0.000172  0.000184 -0.000029)
 13:     84.89   0.000725    3.66  0.002666  (-0.015669 -0.049196  0.000090)
 14:     85.10   0.000720    3.64  0.002640  (-0.048742  0.015556 -0.004671)
 15:    310.06   0.000004    0.02  0.000004  (-0.000761 -0.001889 -0.000030)
 16:    310.24   0.000005    0.02  0.000005  ( 0.002025 -0.000605 -0.000254)
 17:    334.67   0.002551   12.89  0.002378  ( 0.004189 -0.001549 -0.048562)
 18:    356.37   0.000000    0.00  0.000000  ( 0.000030 -0.000018  0.000036)
 19:    384.73   0.012043   60.86  0.009768  (-0.003171  0.098731 -0.003213)
 20:    385.26   0.012016   60.72  0.009733  (-0.098231 -0.003173 -0.008571)
 21:    402.52   0.000001    0.01  0.000001  ( 0.000595  0.000621 -0.000374)
 22:    409.70   0.000381    1.92  0.000290  ( 0.001171 -0.000098 -0.016989)
 23:    435.85   0.001080    5.46  0.000773  (-0.027466 -0.003462 -0.002569)
 24:    436.07   0.001064    5.38  0.000762  ( 0.003387 -0.027357  0.001267)
 25:    440.74   0.000801    4.05  0.000567  ( 0.002491 -0.000853 -0.023673)
 26:    494.43   0.000000    0.00  0.000000  ( 0.000061 -0.000018  0.000011)
 27:    536.45   0.000000    0.00  0.000000  (-0.000276 -0.000208  0.000342)
 28:    546.86   0.000085    0.43  0.000048  ( 0.000022  0.006953 -0.000229)
 29:    547.18   0.000090    0.46  0.000051  (-0.007132 -0.000004 -0.000771)
 30:    615.30   0.016713   84.46  0.008477  ( 0.088824 -0.022637  0.008626)
 31:    615.42   0.016710   84.45  0.008473  ( 0.022792  0.089180 -0.000824)
 32:    630.90   0.014869   75.14  0.007355  ( 0.007465 -0.002633 -0.085394)
 33:   1943.43   0.271520  1372.15  0.043599  ( 0.018587 -0.006235 -0.207881)
 34:   1991.46   0.507657  2565.49  0.079550  ( 0.279106  0.032978  0.023715)
 35:   1991.55   0.507244  2563.40  0.079482  ( 0.032396 -0.279832  0.011252)
 36:   2023.51   0.000004    0.02  0.000001  ( 0.000386  0.000123 -0.000672)
 37:   2110.52   0.010731   54.23  0.001587  ( 0.003561 -0.001270 -0.039653)
 38:   2204.33   0.006983   35.29  0.000989  ( 0.002723 -0.000945 -0.031310)

* The epsilon (eps) is given for a Dirac delta lineshape.
** The dipole moment derivative (T) already includes vibrational overlap.

The first frequency considered to be a vibration is 6
The total number of vibrations considered is 33


--------------------------
THERMOCHEMISTRY AT 298.15K
--------------------------

Temperature         ... 298.15 K
Pressure            ... 1.00 atm
Total Mass          ... 262.01 AMU

Throughout the following assumptions are being made:
  (1) The electronic state is orbitally nondegenerate
  (2) There are no thermally accessible electronically excited states
  (3) Hindered rotations indicated by low frequency modes are not
      treated as such but are treated as vibrations and this may
      cause some error
  (4) All equations used are the standard statistical mechanics
      equations for an ideal gas
  (5) All vibrations are strictly harmonic

freq.      41.22  E(vib)   ...       0.54 
freq.      57.26  E(vib)   ...       0.51 
freq.      57.51  E(vib)   ...       0.51 
freq.      75.31  E(vib)   ...       0.49 
freq.      75.35  E(vib)   ...       0.49 
freq.      75.54  E(vib)   ...       0.49 
freq.      80.00  E(vib)   ...       0.49 
freq.      84.89  E(vib)   ...       0.48 
freq.      85.10  E(vib)   ...       0.48 
freq.     310.06  E(vib)   ...       0.26 
freq.     310.24  E(vib)   ...       0.26 
freq.     334.67  E(vib)   ...       0.24 
freq.     356.37  E(vib)   ...       0.22 
freq.     384.73  E(vib)   ...       0.20 
freq.     385.26  E(vib)   ...       0.20 
freq.     402.52  E(vib)   ...       0.19 
freq.     409.70  E(vib)   ...       0.19 
freq.     435.85  E(vib)   ...       0.17 
freq.     436.07  E(vib)   ...       0.17 
freq.     440.74  E(vib)   ...       0.17 
freq.     494.43  E(vib)   ...       0.14 
freq.     536.45  E(vib)   ...       0.12 
freq.     546.86  E(vib)   ...       0.12 
freq.     547.18  E(vib)   ...       0.12 
freq.     615.30  E(vib)   ...       0.10 
freq.     615.42  E(vib)   ...       0.10 
freq.     630.90  E(vib)   ...       0.09 
freq.    1943.43  E(vib)   ...       0.00 
freq.    1991.46  E(vib)   ...       0.00 
freq.    1991.55  E(vib)   ...       0.00 
freq.    2023.51  E(vib)   ...       0.00 
freq.    2110.52  E(vib)   ...       0.00 
freq.    2204.33  E(vib)   ...       0.00 

------------
INNER ENERGY
------------

The inner energy is: U= E(el) + E(ZPE) + E(vib) + E(rot) + E(trans)
    E(el)   - is the total energy from the electronic structure calculation
              = E(kin-el) + E(nuc-el) + E(el-el) + E(nuc-nuc)
    E(ZPE)  - the the zero temperature vibrational energy from the frequency calculation
    E(vib)  - the the finite temperature correction to E(ZPE) due to population
              of excited vibrational states
    E(rot)  - is the rotational thermal energy
    E(trans)- is the translational thermal energy

Summary of contributions to the inner energy U:
Electronic energy                ...   -727.88095665 Eh
Zero point energy                ...      0.04804596 Eh      30.15 kcal/mol
Thermal vibrational correction   ...      0.01202985 Eh       7.55 kcal/mol
Thermal rotational correction    ...      0.00141627 Eh       0.89 kcal/mol
Thermal translational correction ...      0.00141627 Eh       0.89 kcal/mol
-----------------------------------------------------------------------
Total thermal energy                   -727.81804830 Eh


Summary of corrections to the electronic energy:
(perhaps to be used in another calculation)
Total thermal correction                  0.01486240 Eh       9.33 kcal/mol
Non-thermal (ZPE) correction              0.04804596 Eh      30.15 kcal/mol
-----------------------------------------------------------------------
Total correction                          0.06290836 Eh      39.48 kcal/mol


--------
ENTHALPY
--------

The enthalpy is H = U + kB*T
                kB is Boltzmann's constant
Total free energy                 ...   -727.81804830 Eh 
Thermal Enthalpy correction       ...      0.00094421 Eh       0.59 kcal/mol
-----------------------------------------------------------------------
Total Enthalpy                    ...   -727.81710409 Eh


Note: Only C1 symmetry has been detected, increase convergence thresholds 
      if your molecule has a higher symmetry. Symmetry factor of 1.0 is   
      used for the rotational entropy correction. 
 

Note: Rotational entropy computed according to Herzberg 
Infrared and Raman Spectra, Chapter V,1, Van Nostrand Reinhold, 1945 
Point Group:  C1, Symmetry Number:   1  
Rotational constants in cm-1:     0.019598     0.019581     0.019575 

Vibrational entropy computed according to the QRRHO of S. Grimme
Chem.Eur.J. 2012 18 9955


-------
ENTROPY
-------

The entropy contributions are T*S = T*(S(el)+S(vib)+S(rot)+S(trans))
     S(el)   - electronic entropy
     S(vib)  - vibrational entropy
     S(rot)  - rotational entropy
     S(trans)- translational entropy
The entropies will be listed as multiplied by the temperature to get
units of energy

Electronic entropy                ...      0.00000000 Eh      0.00 kcal/mol
Vibrational entropy               ...      0.02179820 Eh     13.68 kcal/mol
Rotational entropy                ...      0.01508104 Eh      9.46 kcal/mol
Translational entropy             ...      0.02023540 Eh     12.70 kcal/mol
-----------------------------------------------------------------------
Final entropy term                ...      0.05711463 Eh     35.84 kcal/mol

In case the symmetry of your molecule has not been determined correctly
or in case you have a reason to use a different symmetry number we print 
out the resulting rotational entropy values for sn=1,12 :
 --------------------------------------------------------
|  sn= 1 | S(rot)=       0.01508104 Eh      9.46 kcal/mol|
|  sn= 2 | S(rot)=       0.01442658 Eh      9.05 kcal/mol|
|  sn= 3 | S(rot)=       0.01404375 Eh      8.81 kcal/mol|
|  sn= 4 | S(rot)=       0.01377213 Eh      8.64 kcal/mol|
|  sn= 5 | S(rot)=       0.01356144 Eh      8.51 kcal/mol|
|  sn= 6 | S(rot)=       0.01338929 Eh      8.40 kcal/mol|
|  sn= 7 | S(rot)=       0.01324375 Eh      8.31 kcal/mol|
|  sn= 8 | S(rot)=       0.01311767 Eh      8.23 kcal/mol|
|  sn= 9 | S(rot)=       0.01300646 Eh      8.16 kcal/mol|
|  sn=10 | S(rot)=       0.01290698 Eh      8.10 kcal/mol|
|  sn=11 | S(rot)=       0.01281699 Eh      8.04 kcal/mol|
|  sn=12 | S(rot)=       0.01273484 Eh      7.99 kcal/mol|
 --------------------------------------------------------


-------------------
GIBBS FREE ENERGY
-------------------

The Gibbs free energy is G = H - T*S

Total enthalpy                    ...   -727.81710409 Eh 
Total entropy correction          ...     -0.05711463 Eh    -35.84 kcal/mol
-----------------------------------------------------------------------
Final Gibbs free energy         ...   -727.87421872 Eh

For completeness - the Gibbs free energy minus the electronic energy
G-E(el)                           ...      0.00673793 Eh      4.23 kcal/mol


Timings for individual modules:

Sum of individual times         ...     2380.297 sec (=  39.672 min)
GTO integral calculation        ...       17.651 sec (=   0.294 min)   0.7 %
SCF iterations                  ...      719.660 sec (=  11.994 min)  30.2 %
SCF Gradient evaluation         ...      221.694 sec (=   3.695 min)   9.3 %
Geometry relaxation             ...        0.308 sec (=   0.005 min)   0.0 %
Analytical frequency calculation...     1420.984 sec (=  23.683 min)  59.7 %
                             ****ORCA TERMINATED NORMALLY****
TOTAL RUN TIME: 0 days 0 hours 39 minutes 42 seconds 130 msec
