
                                 *****************
                                 * O   R   C   A *
                                 *****************

                                            #,                                       
                                            ###                                      
                                            ####                                     
                                            #####                                    
                                            ######                                   
                                           ########,                                 
                                     ,,################,,,,,                         
                               ,,#################################,,                 
                          ,,##########################################,,             
                       ,#########################################, ''#####,          
                    ,#############################################,,   '####,        
                  ,##################################################,,,,####,       
                ,###########''''           ''''###############################       
              ,#####''   ,,,,##########,,,,          '''####'''          '####       
            ,##' ,,,,###########################,,,                        '##       
           ' ,,###''''                  '''############,,,                           
         ,,##''                                '''############,,,,        ,,,,,,###''
      ,#''                                            '''#######################'''  
     '                                                          ''''####''''         
             ,#######,   #######,   ,#######,      ##                                
            ,#'     '#,  ##    ##  ,#'     '#,    #''#        ######   ,####,        
            ##       ##  ##   ,#'  ##            #'  '#       #        #'  '#        
            ##       ##  #######   ##           ,######,      #####,   #    #        
            '#,     ,#'  ##    ##  '#,     ,#' ,#      #,         ##   #,  ,#        
             '#######'   ##     ##  '#######'  #'      '#     #####' # '####'        



                  #######################################################
                  #                        -***-                        #
                  #          Department of theory and spectroscopy      #
                  #    Directorship and core code : Frank Neese         #
                  #        Max Planck Institute fuer Kohlenforschung    #
                  #                Kaiser Wilhelm Platz 1               #
                  #                 D-45470 Muelheim/Ruhr               #
                  #                      Germany                        #
                  #                                                     #
                  #                  All rights reserved                #
                  #                        -***-                        #
                  #######################################################



                         Program Version 5.0.4 -  RELEASE  -

 With contributions from (in alphabetic order):
   Daniel Aravena         : Magnetic Suceptibility
   Michael Atanasov       : Ab Initio Ligand Field Theory (pilot matlab implementation)
   Alexander A. Auer      : GIAO ZORA, VPT2 properties, NMR spectrum
   Ute Becker             : Parallelization
   Giovanni Bistoni       : ED, misc. LED, open-shell LED, HFLD
   Martin Brehm           : Molecular dynamics
   Dmytro Bykov           : SCF Hessian
   Vijay G. Chilkuri      : MRCI spin determinant printing, contributions to CSF-ICE
   Dipayan Datta          : RHF DLPNO-CCSD density
   Achintya Kumar Dutta   : EOM-CC, STEOM-CC
   Dmitry Ganyushin       : Spin-Orbit,Spin-Spin,Magnetic field MRCI
   Miquel Garcia          : C-PCM and meta-GGA Hessian, CC/C-PCM, Gaussian charge scheme
   Yang Guo               : DLPNO-NEVPT2, F12-NEVPT2, CIM, IAO-localization
   Andreas Hansen         : Spin unrestricted coupled pair/coupled cluster methods
   Benjamin Helmich-Paris : MC-RPA, TRAH-SCF, COSX integrals
   Lee Huntington         : MR-EOM, pCC
   Robert Izsak           : Overlap fitted RIJCOSX, COSX-SCS-MP3, EOM
   Marcus Kettner         : VPT2
   Christian Kollmar      : KDIIS, OOCD, Brueckner-CCSD(T), CCSD density, CASPT2, CASPT2-K
   Simone Kossmann        : Meta GGA functionals, TD-DFT gradient, OOMP2, MP2 Hessian
   Martin Krupicka        : Initial AUTO-CI
   Lucas Lang             : DCDCAS
   Marvin Lechner         : AUTO-CI (C++ implementation), FIC-MRCC
   Dagmar Lenk            : GEPOL surface, SMD
   Dimitrios Liakos       : Extrapolation schemes; Compound Job, initial MDCI parallelization
   Dimitrios Manganas     : Further ROCIS development; embedding schemes
   Dimitrios Pantazis     : SARC Basis sets
   Anastasios Papadopoulos: AUTO-CI, single reference methods and gradients
   Taras Petrenko         : DFT Hessian,TD-DFT gradient, ASA, ECA, R-Raman, ABS, FL, XAS/XES, NRVS
   Peter Pinski           : DLPNO-MP2, DLPNO-MP2 Gradient
   Christoph Reimann      : Effective Core Potentials
   Marius Retegan         : Local ZFS, SOC
   Christoph Riplinger    : Optimizer, TS searches, QM/MM, DLPNO-CCSD(T), (RO)-DLPNO pert. Triples
   Tobias Risthaus        : Range-separated hybrids, TD-DFT gradient, RPA, STAB
   Michael Roemelt        : Original ROCIS implementation
   Masaaki Saitow         : Open-shell DLPNO-CCSD energy and density
   Barbara Sandhoefer     : DKH picture change effects
   Avijit Sen             : IP-ROCIS
   Kantharuban Sivalingam : CASSCF convergence, NEVPT2, FIC-MRCI
   Bernardo de Souza      : ESD, SOC TD-DFT
   Georgi Stoychev        : AutoAux, RI-MP2 NMR, DLPNO-MP2 response
   Willem Van den Heuvel  : Paramagnetic NMR
   Boris Wezisla          : Elementary symmetry handling
   Frank Wennmohs         : Technical directorship


 We gratefully acknowledge several colleagues who have allowed us to
 interface, adapt or use parts of their codes:
   Stefan Grimme, W. Hujo, H. Kruse, P. Pracht,  : VdW corrections, initial TS optimization,
                  C. Bannwarth, S. Ehlert          DFT functionals, gCP, sTDA/sTD-DF
   Ed Valeev, F. Pavosevic, A. Kumar             : LibInt (2-el integral package), F12 methods
   Garnet Chan, S. Sharma, J. Yang, R. Olivares  : DMRG
   Ulf Ekstrom                                   : XCFun DFT Library
   Mihaly Kallay                                 : mrcc  (arbitrary order and MRCC methods)
   Jiri Pittner, Ondrej Demel                    : Mk-CCSD
   Frank Weinhold                                : gennbo (NPA and NBO analysis)
   Christopher J. Cramer and Donald G. Truhlar   : smd solvation model
   Lars Goerigk                                  : TD-DFT with DH, B97 family of functionals
   V. Asgeirsson, H. Jonsson                     : NEB implementation
   FAccTs GmbH                                   : IRC, NEB, NEB-TS, DLPNO-Multilevel, CI-OPT
                                                   MM, QMMM, 2- and 3-layer-ONIOM, Crystal-QMMM,
                                                   LR-CPCM, SF, NACMEs, symmetry and pop. for TD-DFT,
                                                   nearIR, NL-DFT gradient (VV10), updates on ESD,
                                                   ML-optimized integration grids
   S Lehtola, MJT Oliveira, MAL Marques          : LibXC Library
   Liviu Ungur et al                             : ANISO software


 Your calculation uses the libint2 library for the computation of 2-el integrals
 For citations please refer to: http://libint.valeyev.net

 Your ORCA version has been built with support for libXC version: 5.1.0
 For citations please refer to: https://tddft.org/programs/libxc/

 This ORCA versions uses:
   CBLAS   interface :  Fast vector & matrix operations
   LAPACKE interface :  Fast linear algebra routines
   Shared memory     :  Shared parallel matrices


================================================================================

cite the ECPs for Mo [Def2-ECP] as follows:
Ce-Yb(ecp-28): M. Dolg, H. Stoll, H.Preuss, J. Chem. Phys., 1989, 90, 1730-1734.
Y-Cd(ecp-28), Hf-Hg(ecp-46): D. Andrae,U. Haeussermann, M. Dolg, H. Stoll, H. Preuss, Theor. Chim. Acta, 1990, 77, 123-141.
In-Sb(ecp-28), Tl-Bi(ecp-46): B. Metz, H. Stoll, M. Dolg, J. Chem. Phys., 2000, 113, 2563-2569.
Te-Xe(ecp-28), Po-Rn(ecp-46): K. A. Peterson, D. Figgen, E. Goll, H. Stoll, M. Dolg, J. Chem. Phys., 2003, 119, 11113-11123.
Rb(ecp-28), Cs(ecp-46): T. Leininger, A. Nicklass, W. Kuechle, H. Stoll, M. Dolg, A. Bergner, Chem. Phys. Lett., 1996, 255, 274-280.
Sr(ecp-28), Ba(ecp-46): M. Kaupp, P. V. Schleyer, H. Stoll and H. Preuss, J. Chem. Phys., 1991, 94, 1360-1366.
La(ecp-46): M. Dolg, H. Stoll, A. Savin, H. Preuss, Theor. Chim. Acta, 1989, 75, 173-194.
Lu(ecp-28): X. Cao, M. Dolg, J. Chem. Phys., 2001, 115, 7348-7355.

ECP parameters for Mo [Def2-ECP] have been obtained from:
TURBOMOLE (7.0.2)

----- Orbital basis set information -----
Your calculation utilizes the basis: def2-TZVPD
   F. Weigend and R. Ahlrichs, Phys. Chem. Chem. Phys. 7, 3297 (2005).
   D. Rappoport and F. Furche, J. Chem. Phys. 133 134105 (2010).

----- AuxJ basis set information -----
Your calculation utilizes the auxiliary basis: def2/J
   F. Weigend, Phys. Chem. Chem. Phys. 8, 1057 (2006).

================================================================================
                                        WARNINGS
                       Please study these warnings very carefully!
================================================================================


WARNING: Geometry Optimization
  ===> : Switching off AutoStart
         For restart on a previous wavefunction, please use MOREAD

INFO   : the flag for use of the SHARK integral package has been found!

================================================================================
                                       INPUT FILE
================================================================================
NAME = MoCO5Cl.inp
|  1> !B3LYP def2-TZVPD OPT FREQ TightSCF PAL8

|  2> 

|  3> %scf

|  4>   MaxIter 300

|  5> end

|  6> 

|  7> * xyz -1 1

|  8> Mo         1.30392        1.79866       -0.08309

|  9> C          3.44577        1.82090        0.08303

| 10> C          1.31982        3.89094       -0.57151

| 11> C         -0.83806        1.77471       -0.24899

| 12> C          1.28884       -0.29340        0.40512

| 13> O          1.32839        4.98944       -0.82748

| 14> O          4.57032        1.83218        0.17043

| 15> O          1.28111       -1.39188        0.66144

| 16> O         -1.96262        1.76171       -0.33566

| 17> C          1.47122        1.30977       -2.16856

| 18> O          1.55917        1.05286       -3.26341

| 19> Cl         1.11801        2.34183        2.23336

| 20> **                         ****END OF INPUT****
================================================================================

                       *****************************
                       * Geometry Optimization Run *
                       *****************************

Geometry optimization settings:
Update method            Update   .... BFGS
Choice of coordinates    CoordSys .... Z-matrix Internals
Initial Hessian          InHess   .... Almoef's Model

Convergence Tolerances:
Energy Change            TolE     ....  5.0000e-06 Eh
Max. Gradient            TolMAXG  ....  3.0000e-04 Eh/bohr
RMS Gradient             TolRMSG  ....  1.0000e-04 Eh/bohr
Max. Displacement        TolMAXD  ....  4.0000e-03 bohr
RMS Displacement         TolRMSD  ....  2.0000e-03 bohr
Strict Convergence                ....  False
------------------------------------------------------------------------------
                        ORCA OPTIMIZATION COORDINATE SETUP
------------------------------------------------------------------------------

The optimization will be done in new redundant internal coordinates
Making redundant internal coordinates   ...  (new redundants) done
Evaluating the initial hessian          ...  (Almloef) done
Evaluating the coordinates              ...  done
Calculating the B-matrix                .... done
Calculating the G-matrix                .... done
Diagonalizing the G-matrix              .... done
The first mode is                       ....    3
The number of degrees of freedom        ....   30

    -----------------------------------------------------------------
                    Redundant Internal Coordinates


    -----------------------------------------------------------------
         Definition                    Initial Value    Approx d2E/dq
    -----------------------------------------------------------------
      1. B(C   1,Mo  0)                  2.1484         0.389842   
      2. B(C   2,Mo  0)                  2.1486         0.389565   
      3. B(C   3,Mo  0)                  2.1485         0.389654   
      4. B(C   4,Mo  0)                  2.1483         0.389949   
      5. B(O   5,C   2)                  1.1280         1.465351   
      6. B(O   6,C   1)                  1.1280         1.465155   
      7. B(O   7,C   4)                  1.1280         1.465061   
      8. B(O   8,C   3)                  1.1280         1.465305   
      9. B(C   9,Mo  0)                  2.1485         0.389650   
     10. B(O  10,C   9)                  1.1280         1.465022   
     11. B(Cl 11,Mo  0)                  2.3865         0.364717   
     12. A(C   3,Mo  0,C   9)           90.0083         0.461992   
     13. A(C   2,Mo  0,C   9)           90.0205         0.461973   
     14. A(C   3,Mo  0,C   4)           89.9825         0.462057   
     15. A(C   1,Mo  0,Cl 11)           90.0146         0.471702   
     16. A(C   2,Mo  0,C   3)           90.0390         0.461974   
     17. A(C   4,Mo  0,C   9)           89.9737         0.462056   
     18. A(C   4,Mo  0,Cl 11)           90.0294         0.471726   
     19. A(C   1,Mo  0,C   2)           90.0068         0.462015   
     20. A(C   2,Mo  0,Cl 11)           89.9765         0.471641   
     21. A(C   3,Mo  0,Cl 11)           89.9899         0.471660   
     22. A(C   1,Mo  0,C   4)           89.9718         0.462098   
     23. A(C   1,Mo  0,C   9)           89.9873         0.462033   
     24. L(Mo  0,C   1,O   6,Cl 11, 1) 179.9957         0.521310   
     25. L(Mo  0,C   1,O   6,Cl 11, 2) 179.9708         0.521310   
     26. L(Mo  0,C   2,O   5,Cl 11, 2) 179.9824         0.521254   
     27. L(Mo  0,C   2,O   5,Cl 11, 1) 179.9781         0.521254   
     28. L(Mo  0,C   3,O   8,Cl 11, 2) 180.0350         0.521273   
     29. L(Mo  0,C   3,O   8,Cl 11, 1) 179.9838         0.521273   
     30. L(Mo  0,C   4,O   7,Cl 11, 2) 180.0127         0.521331   
     31. L(Mo  0,C   4,O   7,Cl 11, 1) 180.0020         0.521331   
     32. L(Mo  0,C   9,O  10,C   4, 2) 180.0083         0.521253   
     33. L(Mo  0,C   9,O  10,C   4, 1) 179.9878         0.521253   
    -----------------------------------------------------------------

Number of atoms                         .... 12
Number of degrees of freedom            .... 33

         *************************************************************
         *                GEOMETRY OPTIMIZATION CYCLE   1            *
         *************************************************************
---------------------------------
CARTESIAN COORDINATES (ANGSTROEM)
---------------------------------
  Mo     1.303920    1.798660   -0.083090
  C      3.445770    1.820900    0.083030
  C      1.319820    3.890940   -0.571510
  C     -0.838060    1.774710   -0.248990
  C      1.288840   -0.293400    0.405120
  O      1.328390    4.989440   -0.827480
  O      4.570320    1.832180    0.170430
  O      1.281110   -1.391880    0.661440
  O     -1.962620    1.761710   -0.335660
  C      1.471220    1.309770   -2.168560
  O      1.559170    1.052860   -3.263410
  Cl     1.118010    2.341830    2.233360

----------------------------
CARTESIAN COORDINATES (A.U.)
----------------------------
  NO LB      ZA    FRAG     MASS         X           Y           Z
   0 Mo   14.0000*   0    95.940    2.464052    3.398975   -0.157017
   1 C     6.0000    0    12.011    6.511562    3.441002    0.156904
   2 C     6.0000    0    12.011    2.494098    7.352811   -1.079997
   3 C     6.0000    0    12.011   -1.583704    3.353716   -0.470523
   4 C     6.0000    0    12.011    2.435555   -0.554446    0.765566
   5 O     8.0000    0    15.999    2.510293    9.428675   -1.563711
   6 O     8.0000    0    15.999    8.636653    3.462318    0.322066
   7 O     8.0000    0    15.999    2.420947   -2.630272    1.249940
   8 O     8.0000    0    15.999   -3.708814    3.329149   -0.634305
   9 C     6.0000    0    12.011    2.780203    2.475107   -4.097985
  10 O     8.0000    0    15.999    2.946404    1.989617   -6.166951
  11 Cl   17.0000    0    35.453    2.112733    4.425417    4.220439
* core charge reduced due to ECP

--------------------------------
INTERNAL COORDINATES (ANGSTROEM)
--------------------------------
 Mo     0   0   0     0.000000000000     0.00000000     0.00000000
 C      1   0   0     2.148397517803     0.00000000     0.00000000
 C      1   2   0     2.148590818374    90.00680952     0.00000000
 C      1   2   3     2.148528504093   179.95402340   174.51305230
 C      1   2   3     2.148322939900    89.97175920   179.99419806
 O      3   1   2     1.127961141086   179.97445772   300.76314773
 O      2   1   3     1.127997651106   179.97785414   168.69831240
 O      5   1   2     1.128015073348   179.99037039   348.19657821
 O      4   1   5     1.127969805669   179.96932001    31.96949411
 C      1   2   3     2.148531555039    89.98733514    90.02047068
 O     10   1   2     1.128022372606   179.98643394    64.18625995
 Cl     1   2   3     2.386532375540    90.01455586   270.02354429

---------------------------
INTERNAL COORDINATES (A.U.)
---------------------------
 Mo     0   0   0     0.000000000000     0.00000000     0.00000000
 C      1   0   0     4.059882935443     0.00000000     0.00000000
 C      1   2   0     4.060248220584    90.00680952     0.00000000
 C      1   2   3     4.060130463659   179.95402340   174.51305230
 C      1   2   3     4.059742003631    89.97175920   179.99419806
 O      3   1   2     2.131537646358   179.97445772   300.76314773
 O      2   1   3     2.131606640296   179.97785414   168.69831240
 O      5   1   2     2.131639563563   179.99037039   348.19657821
 O      4   1   5     2.131554020046   179.96932001    31.96949411
 C      1   2   3     4.060136229112    89.98733514    90.02047068
 O     10   1   2     2.131653357162   179.98643394    64.18625995
 Cl     1   2   3     4.509892599507    90.01455586   270.02354429

---------------------
BASIS SET INFORMATION
---------------------
There are 4 groups of distinct atoms

 Group   1 Type Mo  : 7s7p5d1f contracted to 6s4p3d1f pattern {211111/4111/311/1}
 Group   2 Type C   : 12s6p3d1f contracted to 6s3p3d1f pattern {621111/411/111/1}
 Group   3 Type O   : 12s7p3d1f contracted to 6s4p3d1f pattern {621111/4111/111/1}
 Group   4 Type Cl  : 15s10p4d1f contracted to 6s6p3d1f pattern {732111/511111/211/1}

Atom   0Mo   basis set group =>   1
Atom   1C    basis set group =>   2
Atom   2C    basis set group =>   2
Atom   3C    basis set group =>   2
Atom   4C    basis set group =>   2
Atom   5O    basis set group =>   3
Atom   6O    basis set group =>   3
Atom   7O    basis set group =>   3
Atom   8O    basis set group =>   3
Atom   9C    basis set group =>   2
Atom  10O    basis set group =>   3
Atom  11Cl   basis set group =>   4
---------------------------------
AUXILIARY/J BASIS SET INFORMATION
---------------------------------
There are 4 groups of distinct atoms

 Group   1 Type Mo  : 11s5p5d3f3g contracted to 8s5p5d2f3g pattern {41111111/11111/11111/21/111}
 Group   2 Type C   : 12s5p4d2f1g contracted to 6s4p3d1f1g pattern {711111/2111/211/2/1}
 Group   3 Type O   : 12s5p4d2f1g contracted to 6s4p3d1f1g pattern {711111/2111/211/2/1}
 Group   4 Type Cl  : 14s5p5d2f1g contracted to 8s4p3d1f1g pattern {71111111/2111/311/2/1}

Atom   0Mo   basis set group =>   1
Atom   1C    basis set group =>   2
Atom   2C    basis set group =>   2
Atom   3C    basis set group =>   2
Atom   4C    basis set group =>   2
Atom   5O    basis set group =>   3
Atom   6O    basis set group =>   3
Atom   7O    basis set group =>   3
Atom   8O    basis set group =>   3
Atom   9C    basis set group =>   2
Atom  10O    basis set group =>   3
Atom  11Cl   basis set group =>   4
-------------------------
ECP PARAMETER INFORMATION
-------------------------

 Group 1, Type Mo ECP Def2-ECP (replacing 28 core electrons, lmax=3)

Atom   0Mo   ECP group =>   1



           ************************************************************
           *        Program running with 8 parallel MPI-processes     *
           *              working on a common directory               *
           ************************************************************
------------------------------------------------------------------------------
                           ORCA GTO INTEGRAL CALCULATION
                           -- RI-GTO INTEGRALS CHOSEN --
------------------------------------------------------------------------------
------------------------------------------------------------------------------
                   ___                                                        
                  /   \      - P O W E R E D   B Y -                         
                 /     \                                                     
                 |  |  |   _    _      __       _____    __    __             
                 |  |  |  | |  | |    /  \     |  _  \  |  |  /  |          
                  \  \/   | |  | |   /    \    | | | |  |  | /  /          
                 / \  \   | |__| |  /  /\  \   | |_| |  |  |/  /          
                |  |  |   |  __  | /  /__\  \  |    /   |      \           
                |  |  |   | |  | | |   __   |  |    \   |  |\   \          
                \     /   | |  | | |  |  |  |  | |\  \  |  | \   \       
                 \___/    |_|  |_| |__|  |__|  |_| \__\ |__|  \__/        
                                                                              
                      - O R C A' S   B I G   F R I E N D -                    
                                      &                                       
                       - I N T E G R A L  F E E D E R -                       
                                                                              
 v1 FN, 2020, v2 2021                                                         
------------------------------------------------------------------------------


Reading SHARK input file MoCO5Cl.SHARKINP.tmp ... ok
----------------------
SHARK INTEGRAL PACKAGE
----------------------

Number of atoms                             ...     12
Number of basis functions                   ...    471
Number of shells                            ...    165
Maximum angular momentum                    ...      3
Integral batch strategy                     ... SHARK/LIBINT Hybrid
RI-J (if used) integral strategy            ... SPLIT-RIJ (Revised 2003 algorithm where possible)
Printlevel                                  ...      1
Contraction scheme used                     ... SEGMENTED contraction
Coulomb Range Separation                    ... NOT USED
Exchange Range Separation                   ... NOT USED
Finite Nucleus Model                        ... NOT USED
Auxiliary Coulomb fitting basis             ... AVAILABLE
   # of basis functions in Aux-J            ...    630
   # of shells in Aux-J                     ...    190
   Maximum angular momentum in Aux-J        ...      4
Auxiliary J/K fitting basis                 ... NOT available
Auxiliary Correlation fitting basis         ... NOT available
Auxiliary 'external' fitting basis          ... NOT available
Integral threshold                          ...     2.500000e-11
Primitive cut-off                           ...     2.500000e-12
Primitive pair pre-selection threshold      ...     2.500000e-12

Calculating pre-screening integrals         ... done (  0.1 sec) Dimension = 165
Organizing shell pair data                  ... done (  0.2 sec)
Shell pair information
Total number of shell pairs                 ...     13695
Shell pairs after pre-screening             ...     11803
Total number of primitive shell pairs       ...     38216
Primitive shell pairs kept                  ...     24084
          la=0 lb=0:   2091 shell pairs
          la=1 lb=0:   2864 shell pairs
          la=1 lb=1:    969 shell pairs
          la=2 lb=0:   2207 shell pairs
          la=2 lb=1:   1470 shell pairs
          la=2 lb=2:    600 shell pairs
          la=3 lb=0:    661 shell pairs
          la=3 lb=1:    488 shell pairs
          la=3 lb=2:    390 shell pairs
          la=3 lb=3:     63 shell pairs

Calculating one electron integrals          ... done (  0.0 sec)
Calculating ECP integrals                   ... done (  1.1 sec)
Calculating RI/J V-Matrix + Cholesky decomp.... done (  0.0 sec)
Calculating Nuclear repulsion               ... done (  0.0 sec) ENN=    772.411720329006 Eh

SHARK setup successfully completed in   1.8 seconds

Maximum memory used throughout the entire GTOINT-calculation: 24.8 MB


           ************************************************************
           *        Program running with 8 parallel MPI-processes     *
           *              working on a common directory               *
           ************************************************************
-------------------------------------------------------------------------------
                                 ORCA SCF
-------------------------------------------------------------------------------

------------
SCF SETTINGS
------------
Hamiltonian:
 Density Functional     Method          .... DFT(GTOs)
 Exchange Functional    Exchange        .... B88
   X-Alpha parameter    XAlpha          ....  0.666667
   Becke's b parameter  XBeta           ....  0.004200
 Correlation Functional Correlation     .... LYP
 LDA part of GGA corr.  LDAOpt          .... VWN-5
 Gradients option       PostSCFGGA      .... off
 Hybrid DFT is turned on
   Fraction HF Exchange ScalHFX         ....  0.200000
   Scaling of DF-GGA-X  ScalDFX         ....  0.720000
   Scaling of DF-GGA-C  ScalDFC         ....  0.810000
   Scaling of DF-LDA-C  ScalLDAC        ....  1.000000
   Perturbative correction              ....  0.000000
   Density functional embedding theory  .... OFF
   NL short-range parameter             ....  4.800000
 RI-approximation to the Coulomb term is turned on
   Number of AuxJ basis functions       .... 630
   RIJ-COSX (HFX calculated with COS-X)).... on


General Settings:
 Integral files         IntName         .... MoCO5Cl
 Hartree-Fock type      HFTyp           .... RHF
 Total Charge           Charge          ....   -1
 Multiplicity           Mult            ....    1
 Number of Electrons    NEL             ....  102
 Basis Dimension        Dim             ....  471
 Nuclear Repulsion      ENuc            ....    772.4117203290 Eh

Convergence Acceleration:
 DIIS                   CNVDIIS         .... on
   Start iteration      DIISMaxIt       ....    12
   Startup error        DIISStart       ....  0.200000
   # of expansion vecs  DIISMaxEq       ....     5
   Bias factor          DIISBfac        ....   1.050
   Max. coefficient     DIISMaxC        ....  10.000
 Trust-Rad. Augm. Hess. CNVTRAH         .... auto
   Auto Start mean grad. ratio tolernc. ....  1.125000
   Auto Start start iteration           ....    20
   Auto Start num. interpolation iter.  ....    10
   Max. Number of Micro iterations      ....    16
   Max. Number of Macro iterations      .... Maxiter - #DIIS iter
   Number of Davidson start vectors     ....     2
   Converg. threshold I  (grad. norm)   ....   1.000e-05
   Converg. threshold II (energy diff.) ....   1.000e-08
   Grad. Scal. Fac. for Micro threshold ....   0.100
   Minimum threshold for Micro iter.    ....   0.010
   NR start threshold (gradient norm)   ....   0.001
   Initial trust radius                 ....   0.400
   Minimum AH scaling param. (alpha)    ....   1.000
   Maximum AH scaling param. (alpha)    .... 1000.000
   Orbital update algorithm             .... Taylor
   White noise on init. David. guess    .... on
   Maximum white noise                  ....   0.010
   Quad. conv. algorithm                .... NR
 SOSCF                  CNVSOSCF        .... off
 Level Shifting         CNVShift        .... on
   Level shift para.    LevelShift      ....    0.2500
   Turn off err/grad.   ShiftErr        ....    0.0010
 Zerner damping         CNVZerner       .... off
 Static damping         CNVDamp         .... on
   Fraction old density DampFac         ....    0.7000
   Max. Damping (<1)    DampMax         ....    0.9800
   Min. Damping (>=0)   DampMin         ....    0.0000
   Turn off err/grad.   DampErr         ....    0.1000
 Fernandez-Rico         CNVRico         .... off

SCF Procedure:
 Maximum # iterations   MaxIter         ....   300
 SCF integral mode      SCFMode         .... Direct
   Integral package                     .... SHARK and LIBINT hybrid scheme
 Reset frequency        DirectResetFreq ....    20
 Integral Threshold     Thresh          ....  2.500e-11 Eh
 Primitive CutOff       TCut            ....  2.500e-12 Eh

Convergence Tolerance:
 Convergence Check Mode ConvCheckMode   .... Total+1el-Energy
 Convergence forced     ConvForced      .... 0
 Energy Change          TolE            ....  1.000e-08 Eh
 1-El. energy change                    ....  1.000e-05 Eh
 DIIS Error             TolErr          ....  5.000e-07


Diagonalization of the overlap matrix:
Smallest eigenvalue                        ... 9.966e-06
Time for diagonalization                   ...    0.063 sec
Threshold for overlap eigenvalues          ... 1.000e-08
Number of eigenvalues below threshold      ... 0
Time for construction of square roots      ...    0.097 sec
Total time needed                          ...    0.161 sec

Time for model grid setup =    0.157 sec

------------------------------
INITIAL GUESS: MODEL POTENTIAL
------------------------------
Loading Hartree-Fock densities                     ... done
  calling C:\orca_5_0_4\orca MoCO5Cl_atom42.inp > MoCO5Cl_atom42.out in order to generate an atomic fitting density for atom 0 (Mo with ECP) on-the-fly... 
    atom 0 (Mo), assumed electronic state with S=5: 1s2 2s2 2p6 3s2 3p6 4s2 3d10 4p6 5s2 4d4           ... done
Calculating cut-offs                               ... done
Initializing the effective Hamiltonian             ... done
Setting up the integral package (SHARK)            ... done
Starting the Coulomb interaction                   ... done (   0.1 sec)
Reading the grid                                   ... done
Mapping shells                                     ... done
Starting the XC term evaluation                    ... done (   0.3 sec)
  promolecular density results
     # of electrons  =    129.000836105
     EX              =   -213.819410880
     EC              =     -5.283251847
     EX+EC           =   -219.102662727
Transforming the Hamiltonian                       ... done (   0.1 sec)
Diagonalizing the Hamiltonian                      ... done (   0.1 sec)
Back transforming the eigenvectors                 ... done (   0.0 sec)
Now organizing SCF variables                       ... done
                      ------------------
                      INITIAL GUESS DONE (   3.5 sec)
                      ------------------
-------------------
DFT GRID GENERATION
-------------------

General Integration Accuracy     IntAcc      ... 4.388
Radial Grid Type                 RadialGrid  ... OptM3 with GC (2021)
Angular Grid (max. ang.)         AngularGrid ... 4 (Lebedev-302)
Angular grid pruning method      GridPruning ... 4 (adaptive)
Weight generation scheme         WeightScheme... Becke
Basis function cutoff            BFCut       ... 1.0000e-11
Integration weight cutoff        WCut        ... 1.0000e-14
Angular grids for H and He will be reduced by one unit
Partially contracted basis set               ... off
Rotationally invariant grid construction     ... off

Total number of grid points                  ...    82481
Total number of batches                      ...     1295
Average number of points per batch           ...       63
Average number of grid points per atom       ...     6873
Time for grid setup =    0.615 sec

--------------------
COSX GRID GENERATION
--------------------

GRIDX 1
-------
General Integration Accuracy     IntAcc      ... 3.816
Radial Grid Type                 RadialGrid  ... OptM3 with GC (2021)
Angular Grid (max. ang.)         AngularGrid ... 1 (Lebedev-50)
Angular grid pruning method      GridPruning ... 4 (adaptive)
Weight generation scheme         WeightScheme... Becke
Basis function cutoff            BFCut       ... 1.0000e-11
Integration weight cutoff        WCut        ... 1.0000e-14
Angular grids for H and He will be reduced by one unit
Partially contracted basis set               ... on
Rotationally invariant grid construction     ... off

Total number of grid points                  ...    10109
Total number of batches                      ...      164
Average number of points per batch           ...       61
Average number of grid points per atom       ...      842
UseSFitting                                  ... on

GRIDX 2
-------
General Integration Accuracy     IntAcc      ... 4.020
Radial Grid Type                 RadialGrid  ... OptM3 with GC (2021)
Angular Grid (max. ang.)         AngularGrid ... 2 (Lebedev-110)
Angular grid pruning method      GridPruning ... 4 (adaptive)
Weight generation scheme         WeightScheme... Becke
Basis function cutoff            BFCut       ... 1.0000e-11
Integration weight cutoff        WCut        ... 1.0000e-14
Angular grids for H and He will be reduced by one unit
Partially contracted basis set               ... on
Rotationally invariant grid construction     ... off

Total number of grid points                  ...    26966
Total number of batches                      ...      426
Average number of points per batch           ...       63
Average number of grid points per atom       ...     2247
UseSFitting                                  ... on

GRIDX 3
-------
General Integration Accuracy     IntAcc      ... 4.338
Radial Grid Type                 RadialGrid  ... OptM3 with GC (2021)
Angular Grid (max. ang.)         AngularGrid ... 3 (Lebedev-194)
Angular grid pruning method      GridPruning ... 4 (adaptive)
Weight generation scheme         WeightScheme... Becke
Basis function cutoff            BFCut       ... 1.0000e-11
Integration weight cutoff        WCut        ... 1.0000e-14
Angular grids for H and He will be reduced by one unit
Partially contracted basis set               ... on
Rotationally invariant grid construction     ... off

Total number of grid points                  ...    58378
Total number of batches                      ...      919
Average number of points per batch           ...       63
Average number of grid points per atom       ...     4865
UseSFitting                                  ... on

Time for X-Grid setup             =    1.418 sec

--------------
SCF ITERATIONS
--------------
ITER       Energy         Delta-E        Max-DP      RMS-DP      [F,P]     Damp
               ***  Starting incremental Fock matrix formation  ***
  0  -1094.8227558434   0.000000000000 0.20059806  0.00125857  0.4347418 0.7000
  1  -1095.0285259836  -0.205770140174 0.11588379  0.00092281  0.2776836 0.7000
                               ***Turning on DIIS***
  2  -1095.0778722565  -0.049346272909 0.04040674  0.00048717  0.1797455 0.7000
  3  -1095.1180668511  -0.040194594554 0.03777477  0.00025013  0.1267213 0.7000
  4  -1095.1482665947  -0.030199743612 0.06142097  0.00043304  0.0926242 0.0000
  5  -1095.2141187752  -0.065852180503 0.00971636  0.00011770  0.0079319 0.0000
  6  -1095.2145044517  -0.000385676486 0.00510111  0.00004729  0.0046354 0.0000
  7  -1095.2146392784  -0.000134826741 0.00186602  0.00002474  0.0020476 0.0000
  8  -1095.2146537839  -0.000014505500 0.00148346  0.00001926  0.0002759 0.0000
               *** Restarting incremental Fock matrix formation ***
                                   *** Resetting DIIS ***
  9  -1095.2146566206  -0.000002836689 0.00398710  0.00004205  0.0003980 0.0000
 10  -1095.2146465539   0.000010066675 0.00080371  0.00000504  0.0018348 0.0000
 11  -1095.2146553401  -0.000008786183 0.00044370  0.00000605  0.0007712 0.0000
 12  -1095.2146575404  -0.000002200312 0.00028729  0.00000213  0.0001194 0.0000
 13  -1095.2146575807  -0.000000040288 0.00030784  0.00000215  0.0000364 0.0000
 14  -1095.2146575873  -0.000000006584 0.00024953  0.00000232  0.0000138 0.0000
 15  -1095.2146575968  -0.000000009525 0.00019293  0.00000204  0.0000075 0.0000
 16  -1095.2146576048  -0.000000007981 0.00026896  0.00000208  0.0000021 0.0000
 17  -1095.2146576092  -0.000000004437 0.00027209  0.00000230  0.0000011 0.0000
                 **** Energy Check signals convergence ****

               *****************************************************
               *                     SUCCESS                       *
               *           SCF CONVERGED AFTER  18 CYCLES          *
               *****************************************************

Old exchange energy                            =    -20.321697189 Eh
New exchange energy                            =    -20.321704385 Eh
Exchange energy change after final integration =     -0.000007196 Eh
Total energy after final integration           =  -1095.214664811 Eh
Final COS-X integration done in                =     8.733 sec

----------------
TOTAL SCF ENERGY
----------------

Total Energy       :        -1095.21466481 Eh          -29802.30615 eV

Components:
Nuclear Repulsion  :          772.41172033 Eh           21018.39146 eV
Electronic Energy  :        -1867.62638514 Eh          -50820.69761 eV
One Electron Energy:        -3079.37307994 Eh          -83794.00151 eV
Two Electron Energy:         1211.74669480 Eh           32973.30390 eV
Max COSX asymmetry :            0.00000301 Eh               0.00008 eV

Virial components:
Potential Energy   :        -2143.07662792 Eh          -58316.07978 eV
Kinetic Energy     :         1047.86196311 Eh           28513.77363 eV
Virial Ratio       :            2.04518983


DFT components:
N(Alpha)           :       50.999872619652 electrons
N(Beta)            :       50.999872619652 electrons
N(Total)           :      101.999745239304 electrons
E(X)               :      -81.154401153726 Eh       
E(C)               :       -4.334451485011 Eh       
E(XC)              :      -85.488852638737 Eh       
DFET-embed. en.    :        0.000000000000 Eh       

---------------
SCF CONVERGENCE
---------------

  Last Energy change         ...   -6.1896e-09  Tolerance :   1.0000e-08
  Last MAX-Density change    ...    0.0000e+00  Tolerance :   1.0000e-07
  Last RMS-Density change    ...    0.0000e+00  Tolerance :   5.0000e-09
  Last DIIS Error            ...    3.0140e-07  Tolerance :   5.0000e-07

             **** THE GBW FILE WAS UPDATED (MoCO5Cl.gbw) ****
             **** DENSITY MoCO5Cl.scfp WAS UPDATED ****
             **** ENERGY FILE WAS UPDATED (MoCO5Cl.en.tmp) ****
             **** THE GBW FILE WAS UPDATED (MoCO5Cl.gbw) ****
             **** DENSITY MoCO5Cl.scfp WAS UPDATED ****
----------------
ORBITAL ENERGIES
----------------

  NO   OCC          E(Eh)            E(eV) 
   0   2.0000    -101.297121     -2756.4348 
   1   2.0000     -19.074815      -519.0521 
   2   2.0000     -19.074802      -519.0517 
   3   2.0000     -19.074768      -519.0508 
   4   2.0000     -19.074744      -519.0502 
   5   2.0000     -19.052191      -518.4365 
   6   2.0000     -10.146139      -276.0905 
   7   2.0000     -10.146126      -276.0901 
   8   2.0000     -10.146106      -276.0896 
   9   2.0000     -10.146095      -276.0893 
  10   2.0000     -10.129032      -275.6250 
  11   2.0000      -9.230683      -251.1797 
  12   2.0000      -6.988493      -190.1666 
  13   2.0000      -6.985441      -190.0835 
  14   2.0000      -6.985430      -190.0832 
  15   2.0000      -2.406579       -65.4863 
  16   2.0000      -1.407887       -38.3106 
  17   2.0000      -1.407884       -38.3105 
  18   2.0000      -1.403002       -38.1776 
  19   2.0000      -1.017717       -27.6935 
  20   2.0000      -1.017480       -27.6870 
  21   2.0000      -1.017466       -27.6867 
  22   2.0000      -1.017356       -27.6837 
  23   2.0000      -0.998929       -27.1822 
  24   2.0000      -0.592733       -16.1291 
  25   2.0000      -0.445178       -12.1139 
  26   2.0000      -0.435665       -11.8550 
  27   2.0000      -0.434143       -11.8136 
  28   2.0000      -0.434139       -11.8135 
  29   2.0000      -0.419244       -11.4082 
  30   2.0000      -0.343187        -9.3386 
  31   2.0000      -0.339389        -9.2352 
  32   2.0000      -0.337372        -9.1804 
  33   2.0000      -0.337369        -9.1803 
  34   2.0000      -0.335999        -9.1430 
  35   2.0000      -0.335994        -9.1429 
  36   2.0000      -0.334350        -9.0981 
  37   2.0000      -0.332709        -9.0535 
  38   2.0000      -0.329951        -8.9784 
  39   2.0000      -0.318132        -8.6568 
  40   2.0000      -0.318131        -8.6568 
  41   2.0000      -0.307470        -8.3667 
  42   2.0000      -0.279039        -7.5930 
  43   2.0000      -0.266194        -7.2435 
  44   2.0000      -0.266185        -7.2433 
  45   2.0000      -0.160173        -4.3585 
  46   2.0000      -0.138809        -3.7772 
  47   2.0000      -0.138806        -3.7771 
  48   2.0000      -0.079487        -2.1629 
  49   2.0000      -0.045634        -1.2418 
  50   2.0000      -0.045628        -1.2416 
  51   0.0000       0.082885         2.2554 
  52   0.0000       0.094099         2.5606 
  53   0.0000       0.094107         2.5608 
  54   0.0000       0.109522         2.9802 
  55   0.0000       0.109927         2.9913 
  56   0.0000       0.127589         3.4719 
  57   0.0000       0.127594         3.4720 
  58   0.0000       0.128318         3.4917 
  59   0.0000       0.136723         3.7204 
  60   0.0000       0.139144         3.7863 
  61   0.0000       0.139147         3.7864 
  62   0.0000       0.145597         3.9619 
  63   0.0000       0.146656         3.9907 
  64   0.0000       0.158731         4.3193 
  65   0.0000       0.160049         4.3552 
  66   0.0000       0.160054         4.3553 
  67   0.0000       0.172113         4.6834 
  68   0.0000       0.172115         4.6835 
  69   0.0000       0.173357         4.7173 
  70   0.0000       0.180775         4.9191 
  71   0.0000       0.180780         4.9193 
  72   0.0000       0.181969         4.9516 
  73   0.0000       0.192424         5.2361 
  74   0.0000       0.193836         5.2745 
  75   0.0000       0.196392         5.3441 
  76   0.0000       0.196750         5.3538 
  77   0.0000       0.196752         5.3539 
  78   0.0000       0.198241         5.3944 
  79   0.0000       0.227371         6.1871 
  80   0.0000       0.229115         6.2345 
  81   0.0000       0.229116         6.2346 
  82   0.0000       0.247275         6.7287 
  83   0.0000       0.248068         6.7503 
  84   0.0000       0.248077         6.7505 
  85   0.0000       0.249387         6.7862 
  86   0.0000       0.267777         7.2866 
  87   0.0000       0.270678         7.3655 
  88   0.0000       0.297074         8.0838 
  89   0.0000       0.297082         8.0840 
  90   0.0000       0.299532         8.1507 
  91   0.0000       0.323576         8.8049 
  92   0.0000       0.324214         8.8223 
  93   0.0000       0.342798         9.3280 
  94   0.0000       0.343556         9.3486 
  95   0.0000       0.343742         9.3537 
  96   0.0000       0.343749         9.3539 
  97   0.0000       0.356588         9.7033 
  98   0.0000       0.356594         9.7034 
  99   0.0000       0.366397         9.9702 
 100   0.0000       0.368730        10.0337 
 101   0.0000       0.368740        10.0339 
 102   0.0000       0.370999        10.0954 
 103   0.0000       0.383492        10.4353 
 104   0.0000       0.392995        10.6939 
 105   0.0000       0.396628        10.7928 
 106   0.0000       0.399585        10.8733 
 107   0.0000       0.402206        10.9446 
 108   0.0000       0.402212        10.9447 
 109   0.0000       0.418192        11.3796 
 110   0.0000       0.418204        11.3799 
 111   0.0000       0.434939        11.8353 
 112   0.0000       0.434952        11.8356 
 113   0.0000       0.436556        11.8793 
 114   0.0000       0.437705        11.9105 
 115   0.0000       0.446623        12.1532 
 116   0.0000       0.456243        12.4150 
 117   0.0000       0.460152        12.5214 
 118   0.0000       0.460481        12.5303 
 119   0.0000       0.460492        12.5306 
 120   0.0000       0.461375        12.5546 
 121   0.0000       0.463031        12.5997 
 122   0.0000       0.463038        12.5999 
 123   0.0000       0.465158        12.6576 
 124   0.0000       0.469009        12.7624 
 125   0.0000       0.485884        13.2216 
 126   0.0000       0.502709        13.6794 
 127   0.0000       0.532250        14.4832 
 128   0.0000       0.532295        14.4845 
 129   0.0000       0.533400        14.5146 
 130   0.0000       0.557641        15.1742 
 131   0.0000       0.564636        15.3645 
 132   0.0000       0.564649        15.3649 
 133   0.0000       0.604637        16.4530 
 134   0.0000       0.604668        16.4538 
 135   0.0000       0.612651        16.6711 
 136   0.0000       0.616257        16.7692 
 137   0.0000       0.618267        16.8239 
 138   0.0000       0.619600        16.8602 
 139   0.0000       0.619605        16.8603 
 140   0.0000       0.622191        16.9307 
 141   0.0000       0.637866        17.3572 
 142   0.0000       0.637878        17.3575 
 143   0.0000       0.647128        17.6092 
 144   0.0000       0.655835        17.8462 
 145   0.0000       0.660842        17.9824 
 146   0.0000       0.660897        17.9839 
 147   0.0000       0.667023        18.1506 
 148   0.0000       0.674825        18.3629 
 149   0.0000       0.674828        18.3630 
 150   0.0000       0.678829        18.4719 
 151   0.0000       0.682260        18.5652 
 152   0.0000       0.682667        18.5763 
 153   0.0000       0.682715        18.5776 
 154   0.0000       0.695223        18.9180 
 155   0.0000       0.702164        19.1068 
 156   0.0000       0.719863        19.5885 
 157   0.0000       0.721866        19.6430 
 158   0.0000       0.735484        20.0135 
 159   0.0000       0.735501        20.0140 
 160   0.0000       0.736477        20.0406 
 161   0.0000       0.741097        20.1663 
 162   0.0000       0.751602        20.4521 
 163   0.0000       0.751632        20.4530 
 164   0.0000       0.765303        20.8250 
 165   0.0000       0.793102        21.5814 
 166   0.0000       0.793158        21.5829 
 167   0.0000       0.807707        21.9788 
 168   0.0000       0.812563        22.1110 
 169   0.0000       0.812568        22.1111 
 170   0.0000       0.816956        22.2305 
 171   0.0000       0.822589        22.3838 
 172   0.0000       0.835011        22.7218 
 173   0.0000       0.835051        22.7229 
 174   0.0000       0.840976        22.8841 
 175   0.0000       0.856626        23.3100 
 176   0.0000       0.856631        23.3101 
 177   0.0000       0.874609        23.7993 
 178   0.0000       0.890171        24.2228 
 179   0.0000       0.903343        24.5812 
 180   0.0000       0.903353        24.5815 
 181   0.0000       0.907404        24.6917 
 182   0.0000       0.912447        24.8289 
 183   0.0000       0.923813        25.1382 
 184   0.0000       0.935161        25.4470 
 185   0.0000       0.935186        25.4477 
 186   0.0000       0.942135        25.6368 
 187   0.0000       0.952451        25.9175 
 188   0.0000       0.960461        26.1355 
 189   0.0000       0.969780        26.3891 
 190   0.0000       0.986152        26.8346 
 191   0.0000       0.992864        27.0172 
 192   0.0000       0.995289        27.0832 
 193   0.0000       0.995306        27.0836 
 194   0.0000       0.998578        27.1727 
 195   0.0000       1.002868        27.2894 
 196   0.0000       1.011059        27.5123 
 197   0.0000       1.011061        27.5124 
 198   0.0000       1.018425        27.7128 
 199   0.0000       1.027164        27.9505 
 200   0.0000       1.027166        27.9506 
 201   0.0000       1.031583        28.0708 
 202   0.0000       1.031631        28.0721 
 203   0.0000       1.033444        28.1214 
 204   0.0000       1.046993        28.4901 
 205   0.0000       1.060501        28.8577 
 206   0.0000       1.060547        28.8589 
 207   0.0000       1.060910        28.8688 
 208   0.0000       1.073027        29.1986 
 209   0.0000       1.079682        29.3796 
 210   0.0000       1.079705        29.3803 
 211   0.0000       1.090183        29.6654 
 212   0.0000       1.092247        29.7216 
 213   0.0000       1.123711        30.5777 
 214   0.0000       1.126508        30.6538 
 215   0.0000       1.126549        30.6550 
 216   0.0000       1.146413        31.1955 
 217   0.0000       1.146416        31.1956 
 218   0.0000       1.200298        32.6618 
 219   0.0000       1.223183        33.2845 
 220   0.0000       1.257337        34.2139 
 221   0.0000       1.279165        34.8079 
 222   0.0000       1.303379        35.4668 
 223   0.0000       1.303390        35.4671 
 224   0.0000       1.321616        35.9630 
 225   0.0000       1.349791        36.7297 
 226   0.0000       1.353248        36.8237 
 227   0.0000       1.367115        37.2011 
 228   0.0000       1.367129        37.2015 
 229   0.0000       1.407282        38.2941 
 230   0.0000       1.407323        38.2952 
 231   0.0000       1.428901        38.8824 
 232   0.0000       1.434134        39.0248 
 233   0.0000       1.501119        40.8475 
 234   0.0000       1.501133        40.8479 
 235   0.0000       1.561929        42.5022 
 236   0.0000       1.565629        42.6029 
 237   0.0000       1.597193        43.4618 
 238   0.0000       1.689179        45.9649 
 239   0.0000       1.689183        45.9650 
 240   0.0000       1.705349        46.4049 
 241   0.0000       1.776244        48.3341 
 242   0.0000       1.788543        48.6687 
 243   0.0000       1.788560        48.6692 
 244   0.0000       1.789462        48.6937 
 245   0.0000       1.811938        49.3053 
 246   0.0000       1.836318        49.9688 
 247   0.0000       1.843105        50.1534 
 248   0.0000       1.851848        50.3913 
 249   0.0000       1.853516        50.4367 
 250   0.0000       1.853547        50.4376 
 251   0.0000       1.870359        50.8950 
 252   0.0000       1.873793        50.9885 
 253   0.0000       1.873817        50.9892 
 254   0.0000       1.887554        51.3630 
 255   0.0000       1.887577        51.3636 
 256   0.0000       1.889964        51.4285 
 257   0.0000       1.907290        51.9000 
 258   0.0000       1.907783        51.9134 
 259   0.0000       1.912367        52.0382 
 260   0.0000       1.912391        52.0388 
 261   0.0000       1.926631        52.4263 
 262   0.0000       1.935664        52.6721 
 263   0.0000       1.948384        53.0182 
 264   0.0000       1.948408        53.0189 
 265   0.0000       1.950742        53.0824 
 266   0.0000       1.966833        53.5202 
 267   0.0000       1.986688        54.0605 
 268   0.0000       1.993527        54.2466 
 269   0.0000       1.993555        54.2474 
 270   0.0000       2.045350        55.6568 
 271   0.0000       2.045402        55.6582 
 272   0.0000       2.049126        55.7596 
 273   0.0000       2.066904        56.2433 
 274   0.0000       2.087910        56.8149 
 275   0.0000       2.092508        56.9400 
 276   0.0000       2.152208        58.5646 
 277   0.0000       2.180785        59.3422 
 278   0.0000       2.180834        59.3435 
 279   0.0000       2.206528        60.0427 
 280   0.0000       2.217413        60.3389 
 281   0.0000       2.229317        60.6628 
 282   0.0000       2.229344        60.6635 
 283   0.0000       2.261389        61.5355 
 284   0.0000       2.272528        61.8386 
 285   0.0000       2.272566        61.8397 
 286   0.0000       2.281619        62.0860 
 287   0.0000       2.298077        62.5339 
 288   0.0000       2.298092        62.5343 
 289   0.0000       2.302412        62.6518 
 290   0.0000       2.314550        62.9821 
 291   0.0000       2.346135        63.8416 
 292   0.0000       2.346172        63.8426 
 293   0.0000       2.402697        65.3807 
 294   0.0000       2.410057        65.5810 
 295   0.0000       2.411060        65.6083 
 296   0.0000       2.411069        65.6085 
 297   0.0000       2.427995        66.0691 
 298   0.0000       2.483656        67.5837 
 299   0.0000       2.483670        67.5841 
 300   0.0000       2.501668        68.0739 
 301   0.0000       2.533747        68.9468 
 302   0.0000       2.558664        69.6248 
 303   0.0000       2.587387        70.4064 
 304   0.0000       2.587438        70.4078 
 305   0.0000       2.604526        70.8728 
 306   0.0000       2.631007        71.5933 
 307   0.0000       2.678197        72.8774 
 308   0.0000       2.678229        72.8783 
 309   0.0000       2.742394        74.6243 
 310   0.0000       2.800171        76.1965 
 311   0.0000       2.801036        76.2201 
 312   0.0000       2.812798        76.5401 
 313   0.0000       2.812802        76.5402 
 314   0.0000       2.827075        76.9286 
 315   0.0000       2.827824        76.9490 
 316   0.0000       2.827844        76.9495 
 317   0.0000       2.902107        78.9703 
 318   0.0000       2.902121        78.9707 
 319   0.0000       2.919809        79.4520 
 320   0.0000       2.963621        80.6442 
 321   0.0000       2.963634        80.6446 
 322   0.0000       2.964587        80.6705 
 323   0.0000       2.965012        80.6821 
 324   0.0000       2.969171        80.7952 
 325   0.0000       2.977051        81.0097 
 326   0.0000       2.977059        81.0099 
 327   0.0000       2.984857        81.2221 
 328   0.0000       2.990946        81.3878 
 329   0.0000       2.995429        81.5098 
 330   0.0000       2.999531        81.6214 
 331   0.0000       2.999591        81.6230 
 332   0.0000       3.049409        82.9786 
 333   0.0000       3.073627        83.6376 
 334   0.0000       3.075794        83.6966 
 335   0.0000       3.089954        84.0819 
 336   0.0000       3.089979        84.0826 
 337   0.0000       3.110307        84.6358 
 338   0.0000       3.111581        84.6704 
 339   0.0000       3.111623        84.6716 
 340   0.0000       3.138491        85.4027 
 341   0.0000       3.138527        85.4037 
 342   0.0000       3.141604        85.4874 
 343   0.0000       3.173827        86.3642 
 344   0.0000       3.218582        87.5821 
 345   0.0000       3.232260        87.9543 
 346   0.0000       3.233720        87.9940 
 347   0.0000       3.233736        87.9944 
 348   0.0000       3.242418        88.2307 
 349   0.0000       3.276746        89.1648 
 350   0.0000       3.276766        89.1653 
 351   0.0000       3.288208        89.4767 
 352   0.0000       3.295937        89.6870 
 353   0.0000       3.336134        90.7808 
 354   0.0000       3.372716        91.7763 
 355   0.0000       3.393555        92.3433 
 356   0.0000       3.393630        92.3454 
 357   0.0000       3.444080        93.7182 
 358   0.0000       3.444122        93.7193 
 359   0.0000       3.451994        93.9335 
 360   0.0000       3.469003        94.3964 
 361   0.0000       3.477709        94.6333 
 362   0.0000       3.477792        94.6355 
 363   0.0000       3.488278        94.9209 
 364   0.0000       3.510207        95.5176 
 365   0.0000       3.510243        95.5186 
 366   0.0000       3.510486        95.5252 
 367   0.0000       3.533417        96.1492 
 368   0.0000       3.554757        96.7299 
 369   0.0000       3.556575        96.7793 
 370   0.0000       3.653429        99.4149 
 371   0.0000       3.653459        99.4157 
 372   0.0000       3.674634        99.9919 
 373   0.0000       3.703684       100.7824 
 374   0.0000       3.703767       100.7846 
 375   0.0000       3.779798       102.8535 
 376   0.0000       3.808927       103.6462 
 377   0.0000       3.808938       103.6465 
 378   0.0000       3.844274       104.6080 
 379   0.0000       3.861585       105.0791 
 380   0.0000       3.861647       105.0807 
 381   0.0000       3.872164       105.3669 
 382   0.0000       3.930045       106.9420 
 383   0.0000       3.930067       106.9426 
 384   0.0000       3.947486       107.4165 
 385   0.0000       4.360906       118.6663 
 386   0.0000       4.486798       122.0920 
 387   0.0000       4.522143       123.0538 
 388   0.0000       4.531910       123.3195 
 389   0.0000       4.531954       123.3207 
 390   0.0000       4.572068       124.4123 
 391   0.0000       4.727588       128.6442 
 392   0.0000       4.727604       128.6447 
 393   0.0000       4.772278       129.8603 
 394   0.0000       4.801806       130.6638 
 395   0.0000       5.221223       142.0767 
 396   0.0000       5.221261       142.0777 
 397   0.0000       5.221274       142.0781 
 398   0.0000       5.221349       142.0801 
 399   0.0000       5.221421       142.0821 
 400   0.0000       5.222482       142.1110 
 401   0.0000       5.222503       142.1115 
 402   0.0000       5.223019       142.1256 
 403   0.0000       5.240096       142.5903 
 404   0.0000       5.240144       142.5916 
 405   0.0000       5.641067       153.5012 
 406   0.0000       5.644883       153.6051 
 407   0.0000       5.644894       153.6054 
 408   0.0000       5.645360       153.6180 
 409   0.0000       5.646648       153.6531 
 410   0.0000       5.646663       153.6535 
 411   0.0000       5.651695       153.7904 
 412   0.0000       5.663530       154.1125 
 413   0.0000       5.677732       154.4989 
 414   0.0000       5.686443       154.7360 
 415   0.0000       6.351359       172.8293 
 416   0.0000       6.372633       173.4082 
 417   0.0000       6.372640       173.4084 
 418   0.0000       6.394951       174.0155 
 419   0.0000       6.405653       174.3067 
 420   0.0000       6.405656       174.3068 
 421   0.0000       6.421031       174.7251 
 422   0.0000       6.454350       175.6318 
 423   0.0000       6.455667       175.6676 
 424   0.0000       6.455689       175.6682 
 425   0.0000       6.523812       177.5219 
 426   0.0000       6.523853       177.5231 
 427   0.0000       6.533887       177.7961 
 428   0.0000       6.551875       178.2856 
 429   0.0000       6.552342       178.2983 
 430   0.0000       6.552372       178.2991 
 431   0.0000       6.552377       178.2992 
 432   0.0000       6.570881       178.8028 
 433   0.0000       6.582004       179.1054 
 434   0.0000       6.587858       179.2647 
 435   0.0000       6.768490       184.1800 
 436   0.0000       6.782747       184.5679 
 437   0.0000       6.782764       184.5684 
 438   0.0000       6.784090       184.6045 
 439   0.0000       6.797749       184.9761 
 440   0.0000       6.938794       188.8142 
 441   0.0000       6.950435       189.1309 
 442   0.0000       6.950470       189.1319 
 443   0.0000       6.963195       189.4782 
 444   0.0000       6.977622       189.8707 
 445   0.0000       6.978676       189.8994 
 446   0.0000       6.978685       189.8997 
 447   0.0000       6.984719       190.0639 
 448   0.0000       6.989925       190.2055 
 449   0.0000       6.989943       190.2060 
 450   0.0000       7.317798       199.1274 
 451   0.0000       7.317808       199.1277 
 452   0.0000       7.326217       199.3565 
 453   0.0000       7.334303       199.5765 
 454   0.0000       7.346594       199.9110 
 455   0.0000      11.109636       302.3086 
 456   0.0000      11.109754       302.3118 
 457   0.0000      11.285656       307.0983 
 458   0.0000      23.016342       626.3065 
 459   0.0000      23.054162       627.3357 
 460   0.0000      23.054193       627.3365 
 461   0.0000      23.070429       627.7783 
 462   0.0000      23.152677       630.0164 
 463   0.0000      25.132722       683.8961 
 464   0.0000      26.113219       710.5768 
 465   0.0000      44.212448      1203.0819 
 466   0.0000      44.286560      1205.0986 
 467   0.0000      44.286577      1205.0990 
 468   0.0000      44.349880      1206.8216 
 469   0.0000      44.361798      1207.1459 
 470   0.0000      84.593645      2301.9101 

                    ********************************
                    * MULLIKEN POPULATION ANALYSIS *
                    ********************************

-----------------------
MULLIKEN ATOMIC CHARGES
-----------------------
   0 Mo:   -0.088420
   1 C :    0.239708
   2 C :    0.240514
   3 C :    0.240479
   4 C :    0.240136
   5 O :   -0.249937
   6 O :   -0.249992
   7 O :   -0.250199
   8 O :   -0.250042
   9 C :    0.063625
  10 O :   -0.278691
  11 Cl:   -0.657178
Sum of atomic charges:   -1.0000000

--------------------------------
MULLIKEN REDUCED ORBITAL CHARGES
--------------------------------
  0 Mos       :     2.577147  s :     2.577147
      pz      :     2.216234  p :     6.849953
      px      :     2.319297
      py      :     2.314422
      dz2     :     0.600049  d :     4.639364
      dxz     :     1.277717
      dyz     :     1.132496
      dx2y2   :     0.412149
      dxy     :     1.216952
      f0      :     0.004838  f :     0.021957
      f+1     :     0.004026
      f-1     :     0.003862
      f+2     :     0.001872
      f-2     :     0.000272
      f+3     :     0.003782
      f-3     :     0.003305
  1 C s       :     3.548634  s :     3.548634
      pz      :     0.627413  p :     2.096691
      px      :     0.852299
      py      :     0.616980
      dz2     :     0.012204  d :     0.098175
      dxz     :     0.034634
      dyz     :     0.006080
      dx2y2   :     0.002540
      dxy     :     0.042716
      f0      :     0.002182  f :     0.016793
      f+1     :     0.002066
      f-1     :     0.000377
      f+2     :     0.003576
      f-2     :     0.000162
      f+3     :     0.003045
      f-3     :     0.005386
  2 C s       :     3.548250  s :     3.548250
      pz      :     0.632506  p :     2.096368
      px      :     0.616458
      py      :     0.847405
      dz2     :     0.011281  d :     0.098076
      dxz     :     0.007365
      dyz     :     0.033526
      dx2y2   :     0.003723
      dxy     :     0.042181
      f0      :     0.001693  f :     0.016792
      f+1     :     0.000228
      f-1     :     0.003013
      f+2     :     0.003307
      f-2     :     0.000819
      f+3     :     0.004882
      f-3     :     0.002852
  3 C s       :     3.548140  s :     3.548140
      pz      :     0.624525  p :     2.096544
      px      :     0.855172
      py      :     0.616846
      dz2     :     0.010301  d :     0.098045
      dxz     :     0.036198
      dyz     :     0.005517
      dx2y2   :     0.002877
      dxy     :     0.043153
      f0      :     0.002181  f :     0.016793
      f+1     :     0.002067
      f-1     :     0.000371
      f+2     :     0.003580
      f-2     :     0.000178
      f+3     :     0.003040
      f-3     :     0.005375
  4 C s       :     3.548380  s :     3.548380
      pz      :     0.640985  p :     2.096581
      px      :     0.616510
      py      :     0.839086
      dz2     :     0.017011  d :     0.098112
      dxz     :     0.008587
      dyz     :     0.029230
      dx2y2   :     0.002268
      dxy     :     0.041016
      f0      :     0.001691  f :     0.016792
      f+1     :     0.000246
      f-1     :     0.003008
      f+2     :     0.003297
      f-2     :     0.000771
      f+3     :     0.004911
      f-3     :     0.002868
  5 O s       :     3.891992  s :     3.891992
      pz      :     1.500423  p :     4.304729
      px      :     1.502277
      py      :     1.302030
      dz2     :     0.004240  d :     0.051529
      dxz     :     0.000902
      dyz     :     0.019064
      dx2y2   :     0.008139
      dxy     :     0.019183
      f0      :     0.000170  f :     0.001688
      f+1     :     0.000026
      f-1     :     0.000291
      f+2     :     0.000346
      f-2     :     0.000086
      f+3     :     0.000595
      f-3     :     0.000174
  6 O s       :     3.891972  s :     3.891972
      pz      :     1.508201  p :     4.304802
      px      :     1.293965
      py      :     1.502636
      dz2     :     0.002776  d :     0.051531
      dxz     :     0.020113
      dyz     :    -0.000024
      dx2y2   :     0.008548
      dxy     :     0.020118
      f0      :     0.000254  f :     0.001687
      f+1     :     0.000130
      f-1     :     0.000043
      f+2     :     0.000426
      f-2     :     0.000012
      f+3     :     0.000169
      f-3     :     0.000652
  7 O s       :     3.892057  s :     3.892057
      pz      :     1.497779  p :     4.304932
      px      :     1.502318
      py      :     1.304835
      dz2     :     0.005064  d :     0.051524
      dxz     :     0.000894
      dyz     :     0.017369
      dx2y2   :     0.009014
      dxy     :     0.019182
      f0      :     0.000166  f :     0.001687
      f+1     :     0.000025
      f-1     :     0.000298
      f+2     :     0.000342
      f-2     :     0.000089
      f+3     :     0.000593
      f-3     :     0.000174
  8 O s       :     3.892120  s :     3.892120
      pz      :     1.509094  p :     4.304708
      px      :     1.292980
      py      :     1.502634
      dz2     :     0.002450  d :     0.051527
      dxz     :     0.020742
      dyz     :    -0.000023
      dx2y2   :     0.008220
      dxy     :     0.020138
      f0      :     0.000256  f :     0.001688
      f+1     :     0.000127
      f-1     :     0.000043
      f+2     :     0.000428
      f-2     :     0.000011
      f+3     :     0.000169
      f-3     :     0.000653
  9 C s       :     3.592348  s :     3.592348
      pz      :     0.871568  p :     2.218926
      px      :     0.668745
      py      :     0.678613
      dz2     :     0.012736  d :     0.108707
      dxz     :     0.044533
      dyz     :     0.039045
      dx2y2   :     0.004180
      dxy     :     0.008213
      f0      :     0.005059  f :     0.016394
      f+1     :     0.004889
      f-1     :     0.004764
      f+2     :     0.000801
      f-2     :     0.000828
      f+3     :     0.000027
      f-3     :     0.000026
 10 O s       :     3.892410  s :     3.892410
      pz      :     1.302864  p :     4.333277
      px      :     1.520519
      py      :     1.509894
      dz2     :     0.011875  d :     0.051314
      dxz     :     0.019323
      dyz     :     0.018008
      dx2y2   :     0.001056
      dxy     :     0.001051
      f0      :     0.000404  f :     0.001690
      f+1     :     0.000594
      f-1     :     0.000503
      f+2     :     0.000091
      f-2     :     0.000094
      f+3     :     0.000002
      f-3     :     0.000002
 11 Cls       :     6.006124  s :     6.006124
      pz      :     3.724532  p :    11.607794
      px      :     3.947045
      py      :     3.936217
      dz2     :     0.009397  d :     0.041408
      dxz     :     0.014072
      dyz     :     0.013123
      dx2y2   :     0.000972
      dxy     :     0.003845
      f0      :     0.000579  f :     0.001852
      f+1     :     0.000490
      f-1     :     0.000506
      f+2     :     0.000112
      f-2     :     0.000145
      f+3     :     0.000009
      f-3     :     0.000011


                     *******************************
                     * LOEWDIN POPULATION ANALYSIS *
                     *******************************

----------------------
LOEWDIN ATOMIC CHARGES
----------------------
   0 Mo:    0.403793
   1 C :   -0.271855
   2 C :   -0.271784
   3 C :   -0.271802
   4 C :   -0.271868
   5 O :    0.058837
   6 O :    0.058805
   7 O :    0.058781
   8 O :    0.058835
   9 C :   -0.311040
  10 O :    0.021595
  11 Cl:   -0.262299

-------------------------------
LOEWDIN REDUCED ORBITAL CHARGES
-------------------------------
  0 Mos       :     1.921349  s :     1.921349
      pz      :     2.211707  p :     6.600023
      px      :     2.193710
      py      :     2.194605
      dz2     :     0.875843  d :     5.029549
      dxz     :     1.167948
      dyz     :     1.106294
      dx2y2   :     0.778603
      dxy     :     1.100860
      f0      :     0.010088  f :     0.045286
      f+1     :     0.007790
      f-1     :     0.007607
      f+2     :     0.003765
      f-2     :     0.000399
      f+3     :     0.008366
      f-3     :     0.007271
  1 C s       :     3.015905  s :     3.015905
      pz      :     0.626834  p :     2.360060
      px      :     1.119959
      py      :     0.613267
      dz2     :     0.094631  d :     0.805986
      dxz     :     0.248821
      dyz     :     0.019812
      dx2y2   :     0.200366
      dxy     :     0.242356
      f0      :     0.011340  f :     0.089904
      f+1     :     0.011221
      f-1     :     0.001852
      f+2     :     0.019148
      f-2     :     0.000623
      f+3     :     0.017190
      f-3     :     0.028530
  2 C s       :     3.016040  s :     3.016040
      pz      :     0.656964  p :     2.360002
      px      :     0.612680
      py      :     1.090359
      dz2     :     0.109701  d :     0.805832
      dxz     :     0.027060
      dyz     :     0.243807
      dx2y2   :     0.193732
      dxy     :     0.231533
      f0      :     0.008846  f :     0.089909
      f+1     :     0.001086
      f-1     :     0.016066
      f+2     :     0.017855
      f-2     :     0.003996
      f+3     :     0.025939
      f-3     :     0.016123
  3 C s       :     3.015991  s :     3.015991
      pz      :     0.630316  p :     2.360022
      px      :     1.116315
      py      :     0.613392
      dz2     :     0.094305  d :     0.805881
      dxz     :     0.249580
      dyz     :     0.019831
      dx2y2   :     0.199838
      dxy     :     0.242327
      f0      :     0.011313  f :     0.089908
      f+1     :     0.011278
      f-1     :     0.001840
      f+2     :     0.019106
      f-2     :     0.000663
      f+3     :     0.017205
      f-3     :     0.028504
  4 C s       :     3.015850  s :     3.015850
      pz      :     0.646575  p :     2.360069
      px      :     0.612649
      py      :     1.100845
      dz2     :     0.110461  d :     0.806046
      dxz     :     0.027031
      dyz     :     0.241737
      dx2y2   :     0.195171
      dxy     :     0.231646
      f0      :     0.008894  f :     0.089902
      f+1     :     0.001133
      f-1     :     0.015929
      f+2     :     0.017959
      f-2     :     0.003877
      f+3     :     0.026005
      f-3     :     0.016104
  5 O s       :     3.400078  s :     3.400078
      pz      :     1.372313  p :     4.333093
      px      :     1.349281
      py      :     1.611499
      dz2     :     0.026382  d :     0.200966
      dxz     :     0.002024
      dyz     :     0.053763
      dx2y2   :     0.079621
      dxy     :     0.039175
      f0      :     0.000697  f :     0.007026
      f+1     :     0.000055
      f-1     :     0.001307
      f+2     :     0.001356
      f-2     :     0.000188
      f+3     :     0.001312
      f-3     :     0.002110
  6 O s       :     3.400070  s :     3.400070
      pz      :     1.357830  p :     4.333113
      px      :     1.625646
      py      :     1.349637
      dz2     :     0.029290  d :     0.200987
      dxz     :     0.044298
      dyz     :     0.000349
      dx2y2   :     0.086067
      dxy     :     0.040983
      f0      :     0.000632  f :     0.007025
      f+1     :     0.001413
      f-1     :     0.000093
      f+2     :     0.001074
      f-2     :     0.000026
      f+3     :     0.002344
      f-3     :     0.001443
  7 O s       :     3.400069  s :     3.400069
      pz      :     1.369584  p :     4.333131
      px      :     1.349282
      py      :     1.614266
      dz2     :     0.028316  d :     0.200994
      dxz     :     0.002291
      dyz     :     0.050950
      dx2y2   :     0.080537
      dxy     :     0.038899
      f0      :     0.000697  f :     0.007025
      f+1     :     0.000054
      f-1     :     0.001308
      f+2     :     0.001369
      f-2     :     0.000195
      f+3     :     0.001307
      f-3     :     0.002095
  8 O s       :     3.400074  s :     3.400074
      pz      :     1.358728  p :     4.333094
      px      :     1.624698
      py      :     1.349668
      dz2     :     0.028581  d :     0.200972
      dxz     :     0.045329
      dyz     :     0.000238
      dx2y2   :     0.085704
      dxy     :     0.041119
      f0      :     0.000632  f :     0.007026
      f+1     :     0.001414
      f-1     :     0.000094
      f+2     :     0.001068
      f-2     :     0.000023
      f+3     :     0.002350
      f-3     :     0.001445
  9 C s       :     2.999121  s :     2.999121
      pz      :     1.076374  p :     2.395257
      px      :     0.648979
      py      :     0.669904
      dz2     :     0.261653  d :     0.827217
      dxz     :     0.251135
      dyz     :     0.251548
      dx2y2   :     0.034128
      dxy     :     0.028752
      f0      :     0.028180  f :     0.089445
      f+1     :     0.026507
      f-1     :     0.026087
      f+2     :     0.004154
      f-2     :     0.004286
      f+3     :     0.000122
      f-3     :     0.000109
 10 O s       :     3.400554  s :     3.400554
      pz      :     1.605668  p :     4.355052
      px      :     1.368894
      py      :     1.380490
      dz2     :     0.102562  d :     0.215547
      dxz     :     0.049374
      dyz     :     0.057499
      dx2y2   :     0.003067
      dxy     :     0.003045
      f0      :     0.003138  f :     0.007251
      f+1     :     0.001549
      f-1     :     0.002064
      f+2     :     0.000246
      f-2     :     0.000242
      f+3     :     0.000006
      f-3     :     0.000005
 11 Cls       :     5.701661  s :     5.701661
      pz      :     3.654236  p :    11.352485
      px      :     3.854007
      py      :     3.844242
      dz2     :     0.049959  d :     0.205134
      dxz     :     0.067566
      dyz     :     0.064462
      dx2y2   :     0.012314
      dxy     :     0.010832
      f0      :     0.000875  f :     0.003019
      f+1     :     0.000887
      f-1     :     0.000850
      f+2     :     0.000149
      f-2     :     0.000227
      f+3     :     0.000015
      f-3     :     0.000016


                      *****************************
                      * MAYER POPULATION ANALYSIS *
                      *****************************

  NA   - Mulliken gross atomic population
  ZA   - Total nuclear charge
  QA   - Mulliken gross atomic charge
  VA   - Mayer's total valence
  BVA  - Mayer's bonded valence
  FA   - Mayer's free valence

  ATOM       NA         ZA         QA         VA         BVA        FA
  0 Mo    14.0884    14.0000    -0.0884     5.9345     5.9345    -0.0000
  1 C      5.7603     6.0000     0.2397     2.6680     2.6680    -0.0000
  2 C      5.7595     6.0000     0.2405     2.6671     2.6671    -0.0000
  3 C      5.7595     6.0000     0.2405     2.6666     2.6666     0.0000
  4 C      5.7599     6.0000     0.2401     2.6667     2.6667    -0.0000
  5 O      8.2499     8.0000    -0.2499     2.1632     2.1632    -0.0000
  6 O      8.2500     8.0000    -0.2500     2.1632     2.1632    -0.0000
  7 O      8.2502     8.0000    -0.2502     2.1628     2.1628    -0.0000
  8 O      8.2500     8.0000    -0.2500     2.1631     2.1631    -0.0000
  9 C      5.9364     6.0000     0.0636     3.0404     3.0404    -0.0000
 10 O      8.2787     8.0000    -0.2787     2.1000     2.1000    -0.0000
 11 Cl    17.6572    17.0000    -0.6572     0.6383     0.6383    -0.0000

  Mayer bond orders larger than 0.100000
B(  0-Mo,  1-C ) :   0.8051 B(  0-Mo,  2-C ) :   0.8043 B(  0-Mo,  3-C ) :   0.8044 
B(  0-Mo,  4-C ) :   0.8047 B(  0-Mo,  9-C ) :   1.1064 B(  0-Mo, 10-O ) :   0.1036 
B(  0-Mo, 11-Cl) :   1.1703 B(  1-C ,  6-O ) :   2.0176 B(  1-C , 11-Cl) :  -0.1506 
B(  2-C ,  5-O ) :   2.0177 B(  2-C , 11-Cl) :  -0.1511 B(  3-C ,  8-O ) :   2.0174 
B(  3-C , 11-Cl) :  -0.1513 B(  4-C ,  7-O ) :   2.0169 B(  4-C , 11-Cl) :  -0.1512 
B(  9-C , 10-O ) :   1.9352 

-------
TIMINGS
-------

Total SCF time: 0 days 0 hours 1 min 31 sec 

Total time                  ....      91.772 sec
Sum of individual times     ....      90.673 sec  ( 98.8%)

Fock matrix formation       ....      80.766 sec  ( 88.0%)
  Split-RI-J                ....       5.980 sec  (  7.4% of F)
  Chain of spheres X        ....      59.401 sec  ( 73.5% of F)
  XC integration            ....      14.127 sec  ( 17.5% of F)
    Basis function eval.    ....       2.107 sec  ( 14.9% of XC)
    Density eval.           ....       7.101 sec  ( 50.3% of XC)
    XC-Functional eval.     ....       0.189 sec  (  1.3% of XC)
    XC-Potential eval.      ....       3.136 sec  ( 22.2% of XC)
Diagonalization             ....       2.685 sec  (  2.9%)
Density matrix formation    ....       0.073 sec  (  0.1%)
Population analysis         ....       0.196 sec  (  0.2%)
Initial guess               ....       3.309 sec  (  3.6%)
Orbital Transformation      ....       0.000 sec  (  0.0%)
Orbital Orthonormalization  ....       0.000 sec  (  0.0%)
DIIS solution               ....       1.454 sec  (  1.6%)
Grid generation             ....       2.190 sec  (  2.4%)

Maximum memory used throughout the entire SCF-calculation: 95.0 MB

-------------------------   --------------------
FINAL SINGLE POINT ENERGY     -1095.214664811122
-------------------------   --------------------



           ************************************************************
           *        Program running with 8 parallel MPI-processes     *
           *              working on a common directory               *
           ************************************************************
------------------------------------------------------------------------------
                         ORCA SCF GRADIENT CALCULATION
------------------------------------------------------------------------------

 ... reading COSX grid (gridx3)
Gradient of the Kohn-Sham DFT energy:
Kohn-Sham wavefunction type      ... RKS
Hartree-Fock exchange scaling    ...    0.200
Number of operators              ...    1
Number of atoms                  ...   12
Basis set dimensions             ...  471
Integral neglect threshold       ... 2.5e-11
Integral primitive cutoff        ... 2.5e-12
SHARK Integral package           ... ON

Nuc. rep. gradient       (SHARK) ... done (  0.0 sec)
HCore & Overlap gradient (SHARK) ... done (  0.2 sec)
ECP gradient             (SHARK) ... done (  4.9 sec)
RI-J gradient            (SHARK) ... done (  1.3 sec)
COSX-gradient                    ... done ( 11.0 sec)
Exchange-correlation gradient    ... done

------------------
CARTESIAN GRADIENT
------------------

   1   Mo  :   -0.006398916    0.018660157    0.079202975
   2   C   :    0.067995037   -0.000043497    0.002213290
   3   C   :    0.000759015    0.065099301   -0.018482312
   4   C   :   -0.067566861   -0.001464043   -0.008056066
   5   C   :   -0.000250521   -0.066443173    0.012624202
[...]
     20       0.107266  -0.074119   0.108060  -0.027107   0.048620   0.019146
     21       0.461160   0.262807  -0.114974   0.001839  -0.216016   0.006545
     22       0.006756   0.090417   0.179733  -0.013791  -0.002246  -0.427244
     23       0.038828  -0.043176  -0.140963  -0.024256  -0.015868  -0.026262
     24       0.004321  -0.215088   0.099463  -0.004037   0.003511  -0.001947
     25       0.445451  -0.097083  -0.253058  -0.006399   0.212458  -0.083073
     26      -0.105950   0.097782   0.022737  -0.026929  -0.048291   0.019518
     27      -0.001171   0.135923  -0.066762  -0.017455   0.000179   0.000173
     28       0.003243  -0.062932  -0.136035   0.053453   0.000872   0.053996
     29      -0.000306   0.025027   0.026296   0.224603  -0.000246  -0.011370
     30      -0.002929   0.611059  -0.298717  -0.017412  -0.000219  -0.000181
     31       0.006862  -0.281325  -0.606032   0.051965  -0.000550  -0.012771
     32      -0.001295   0.113269   0.119294   0.224502   0.000061   0.004326
     33      -0.000337   0.251166  -0.121425   0.069160   0.000108  -0.000019
     34      -0.001440  -0.116698  -0.251730  -0.199365   0.000117  -0.006766
     35       0.000801   0.046984   0.047533  -0.863094  -0.000027   0.001545
                 18         19         20         21         22         23    
      0       0.217631   0.001841   0.050947   0.004294  -0.004541  -0.009843
      1       0.002913   0.003545  -0.003289   0.047808   0.001813   0.031627
      2       0.016788   0.001115   0.005477  -0.009809   0.017471   0.133403
      3      -0.399643   0.307949  -0.179947  -0.059338  -0.358473   0.029597
      4      -0.069846   0.004793   0.121948   0.040932  -0.005112   0.044364
      5      -0.316276   0.015913   0.535235   0.035299  -0.023540   0.184305
      6       0.179830  -0.003474   0.039520  -0.041620  -0.003734  -0.012341
      7       0.003662  -0.368727  -0.017289  -0.005361  -0.294460   0.085012
      8       0.013398   0.109782  -0.041785   0.576650   0.039843   0.174112
      9      -0.429363  -0.313560  -0.082959   0.038802   0.370920  -0.060240
     10       0.060872   0.005516  -0.129521   0.024754   0.012253   0.043274
     11       0.247070  -0.004103  -0.551170  -0.049521   0.075338   0.176339
     12       0.187638   0.005808   0.032008   0.044802  -0.007749  -0.012615
     13      -0.001525   0.350365   0.039360  -0.242963   0.322286   0.000333
     14       0.016635  -0.113055   0.043335  -0.514371   0.004465   0.190627
     15      -0.082956  -0.003880  -0.016650   0.014581  -0.002406   0.004958
     16       0.001569  -0.394760  -0.001661  -0.207693  -0.304364   0.030448
     17      -0.007065   0.084712   0.018875  -0.183196   0.082878  -0.076385
     18      -0.417744   0.322147  -0.140922  -0.058874  -0.382007   0.053813
     19       0.022996   0.003300  -0.051752  -0.018025  -0.004497  -0.015029
     20       0.092809   0.025860  -0.232015  -0.020334  -0.030357  -0.060831
     21      -0.086791   0.000261  -0.013240  -0.019003   0.005624   0.004151
     22      -0.005547   0.377650   0.025853  -0.082501   0.319962  -0.062328
     23      -0.006274  -0.074238  -0.027207   0.249414  -0.107291  -0.053436
     24      -0.381245  -0.324624  -0.166734   0.034134   0.401696  -0.044641
     25      -0.031883  -0.006929   0.050369  -0.010114   0.000301  -0.016085
     26      -0.153103  -0.036591   0.205916   0.024189   0.014523  -0.068346
     27       0.049255  -0.006209   0.369389   0.033698  -0.009725   0.042212
     28       0.000904   0.015861  -0.027669   0.356847  -0.050441  -0.142066
     29       0.004476  -0.010287   0.032431  -0.087843  -0.069524  -0.593611
     30      -0.010323   0.004148  -0.190553  -0.016816   0.013323   0.050778
     31       0.000076  -0.010217   0.013429  -0.186681   0.000485  -0.149218
     32       0.000239  -0.002590  -0.020335   0.037088  -0.073138  -0.637991
     33      -0.007436  -0.000890   0.040141   0.003592  -0.001093   0.000006
     34      -0.000102   0.001731  -0.002992   0.039507  -0.005027  -0.000295
     35      -0.000555  -0.001139   0.003780  -0.008335  -0.005116  -0.000858
                 24         25         26         27         28         29    
      0       0.000666   0.000367   0.005147   0.024945   0.145513   0.020741
      1       0.000475  -0.000140  -0.023710   0.005639  -0.017851   0.142874
      2      -0.000030   0.000614   0.005963   0.001337   0.016004  -0.028880
      3       0.001372  -0.030812   0.003502   0.006386  -0.061401  -0.009954
      4       0.465425   0.107479   0.448978  -0.142000   0.099141  -0.428238
      5      -0.109062   0.457811  -0.147570  -0.154461   0.156548   0.116474
      6       0.476356   0.040433  -0.116405  -0.467852  -0.439947  -0.073747
      7       0.003161  -0.113007   0.048958  -0.015332  -0.003013  -0.007378
      8       0.037582  -0.456208   0.170290  -0.079024  -0.060477   0.173646
      9      -0.005617  -0.044560  -0.000044  -0.024910  -0.032534  -0.008136
     10      -0.463805   0.106777   0.468133  -0.055413   0.017609  -0.440148
     11       0.108213   0.455233  -0.068161   0.209393  -0.196350   0.068233
     12      -0.477351   0.040454  -0.086961  -0.472242  -0.443189  -0.045976
     13      -0.007044  -0.102625  -0.037996   0.000659   0.006054  -0.090591
     14      -0.036691  -0.459275  -0.193324   0.000554  -0.011855  -0.177888
     15      -0.146926  -0.014086   0.037423   0.153103   0.135782   0.021617
     16      -0.002216   0.050541  -0.010981   0.004449   0.009736  -0.060354
     17      -0.011334   0.158663  -0.047078   0.023902   0.015608  -0.031524
     18      -0.001642   0.000763  -0.001984  -0.003962  -0.048077  -0.005878
     19      -0.143448  -0.038114  -0.147684   0.044190  -0.029884   0.132383
     20       0.033587  -0.162641   0.046294   0.041093  -0.046448  -0.035599
     21       0.147824  -0.014324   0.029114   0.154465   0.136827   0.014350
     22       0.001051   0.027450   0.012454  -0.000827   0.006950  -0.038116
     23       0.011569   0.164439   0.053537   0.002095   0.002574   0.063140
     24       0.000332   0.024059  -0.000387   0.003429  -0.056206  -0.006811
     25       0.143129  -0.037774  -0.152911   0.020442  -0.007670   0.135803
     26      -0.033527  -0.160510   0.024370  -0.059556   0.048213  -0.022744
     27       0.001246  -0.006484   0.123674   0.589653  -0.638302  -0.092204
     28       0.000998  -0.000203  -0.574054   0.130148   0.078515  -0.623877
     29      -0.000194  -0.001411   0.145951   0.012357  -0.067307   0.138461
     30      -0.000427   0.002472  -0.040532  -0.192550   0.196626   0.028615
     31      -0.000405  -0.000229   0.188092  -0.043436  -0.024015   0.191754
     32       0.000009  -0.000805  -0.046402  -0.007532   0.021503  -0.044835
     33      -0.000070  -0.000161   0.001233   0.005831  -0.011201  -0.001619
     34      -0.000004   0.000066  -0.005669   0.001299   0.001379  -0.011007
     35      -0.000004   0.000028   0.001444   0.000169  -0.001221   0.002399
                 30         31         32         33         34         35    
      0       0.014380   0.000362  -0.001318  -0.000009  -0.000020  -0.000311
      1      -0.036813  -0.001046  -0.000014  -0.001341  -0.000008   0.000918
      2      -0.168684  -0.004458  -0.000121   0.000273  -0.000023   0.004001
      3      -0.024978   0.106469  -0.564095   0.000772  -0.406825   0.393800
      4       0.098266   0.000767  -0.003376   0.000413  -0.002562   0.003231
      5       0.450446   0.005271  -0.026244  -0.000060  -0.019446   0.021989
      6      -0.038110   0.001305   0.000422  -0.006817   0.004820   0.004456
      7       0.115726   0.103461   0.000922  -0.547818   0.389528   0.382407
      8       0.446752  -0.027343  -0.000228   0.146778  -0.103719  -0.098456
      9      -0.049005  -0.106560  -0.561495  -0.002908   0.404530  -0.392299
     10       0.097824  -0.001596  -0.008984   0.000288   0.006356  -0.005417
     11       0.448199  -0.011544  -0.062114  -0.000400   0.044320  -0.039821
     12      -0.037717  -0.000273   0.000337  -0.001588  -0.001146  -0.001377
     13       0.092930  -0.103490   0.001179  -0.550876  -0.400506  -0.387194
     14       0.444090   0.021513  -0.000227   0.113151   0.082629   0.083160
     15       0.011978  -0.000930  -0.000662   0.004823  -0.003256  -0.003096
     16      -0.039764  -0.077287  -0.000702   0.413626  -0.279367  -0.267376
     17      -0.139709   0.020139   0.000131  -0.106416   0.071886   0.068458
     18       0.005515  -0.079401   0.424637  -0.000521   0.290959  -0.275110
     19      -0.031089  -0.000607   0.003513  -0.000641   0.002390  -0.002353
     20      -0.142221  -0.004217   0.023879   0.000121   0.016335  -0.015764
     21       0.011915   0.000249  -0.000650   0.001499   0.001031   0.000993
     22      -0.029336   0.077155  -0.000895   0.414246   0.286341   0.270592
     23      -0.139944  -0.016345   0.000143  -0.089286  -0.061649  -0.058597
     24       0.016137   0.079451   0.423208   0.002125  -0.289637   0.274041
     25      -0.030884   0.001145   0.005811  -0.000596  -0.003994   0.003690
     26      -0.141218   0.008291   0.042772   0.000362  -0.029316   0.027425
     27      -0.012950  -0.058988   0.000561  -0.000081  -0.000061   0.016647
     28       0.016843   0.179632  -0.000088   0.000747   0.000205  -0.050828
     29       0.128554   0.761713  -0.000352   0.001000   0.000788  -0.215530
     30      -0.009818   0.042003  -0.000580   0.000055   0.000034  -0.011155
     31       0.036924  -0.128172   0.000065  -0.000719  -0.000126   0.034093
     32       0.139954  -0.543182   0.000252  -0.000654  -0.000551   0.144444
     33       0.000105   0.000016   0.002698   0.000022  -0.000000   0.000116
     34      -0.000722  -0.000079   0.000026   0.002648   0.000020  -0.000343
     35      -0.002375  -0.000320   0.000219  -0.000591   0.000000  -0.001480


-----------
IR SPECTRUM
-----------

 Mode   freq       eps      Int      T**2         TX        TY        TZ
       cm**-1   L/(mol*cm) km/mol    a.u.
----------------------------------------------------------------------------
  6:     37.98   0.000000    0.00  0.000000  (-0.000234 -0.000076  0.000022)
  7:     57.63   0.000003    0.01  0.000015  (-0.000310 -0.003712  0.000909)
  8:     58.00   0.000002    0.01  0.000012  ( 0.003361 -0.000158  0.000648)
  9:     72.07   0.000013    0.07  0.000057  (-0.000809  0.002178  0.007161)
 10:     72.73   0.000006    0.03  0.000024  (-0.004682  0.000671 -0.001339)
 11:     72.85   0.000006    0.03  0.000025  ( 0.000962  0.004323 -0.002339)
 12:     79.64   0.000000    0.00  0.000000  ( 0.000122 -0.000236  0.000040)
 13:     92.65   0.000387    1.96  0.001303  (-0.032338  0.014863 -0.006028)
 14:     92.73   0.000388    1.96  0.001305  ( 0.015756  0.031927 -0.006110)
 15:    237.80   0.007209   36.43  0.009460  (-0.007737  0.021654  0.094508)
 16:    354.07   0.000000    0.00  0.000000  ( 0.000551  0.000188 -0.000011)
 17:    367.01   0.013146   66.43  0.011178  (-0.000496 -0.102920  0.024184)
 18:    368.53   0.013062   66.01  0.011061  (-0.104820 -0.001477 -0.008441)
 19:    398.88   0.000006    0.03  0.000005  (-0.001106 -0.001288 -0.001455)
 20:    404.10   0.000198    1.00  0.000153  (-0.012239  0.000660 -0.001582)
 21:    404.22   0.000166    0.84  0.000128  (-0.000850 -0.011244  0.000819)
 22:    406.25   0.000329    1.67  0.000253  ( 0.002282 -0.003606 -0.015326)
 23:    472.35   0.000012    0.06  0.000008  (-0.000606  0.000499  0.002659)
 24:    490.72   0.000000    0.00  0.000000  (-0.000240 -0.000074 -0.000016)
 25:    534.94   0.000000    0.00  0.000000  ( 0.000039 -0.000435 -0.000157)
 26:    560.52   0.001057    5.34  0.000588  (-0.004941  0.022961 -0.006074)
 27:    560.60   0.001078    5.45  0.000600  (-0.023917 -0.005260 -0.000530)
 28:    615.71   0.011572   58.48  0.005865  (-0.075553  0.009258 -0.008441)
 29:    615.85   0.011550   58.37  0.005852  (-0.010778 -0.074219  0.015093)
 30:    628.81   0.011687   59.06  0.005800  (-0.006207  0.016583  0.074071)
 31:   1916.08   0.260751  1317.73  0.042467  (-0.015495  0.047556  0.199914)
 32:   1989.31   0.500282  2528.22  0.078479  (-0.279256 -0.002561 -0.022114)
 33:   1989.88   0.499685  2525.21  0.078363  (-0.002575 -0.272508  0.064003)
 34:   2022.61   0.000021    0.10  0.000003  ( 0.000214 -0.001540  0.000876)
 35:   2111.94   0.006555   33.12  0.000969  ( 0.002569 -0.007025 -0.030209)

* The epsilon (eps) is given for a Dirac delta lineshape.
** The dipole moment derivative (T) already includes vibrational overlap.

The first frequency considered to be a vibration is 6
The total number of vibrations considered is 30


--------------------------
THERMOCHEMISTRY AT 298.15K
--------------------------

Temperature         ... 298.15 K
Pressure            ... 1.00 atm
Total Mass          ... 271.44 AMU

Throughout the following assumptions are being made:
  (1) The electronic state is orbitally nondegenerate
  (2) There are no thermally accessible electronically excited states
  (3) Hindered rotations indicated by low frequency modes are not
      treated as such but are treated as vibrations and this may
      cause some error
  (4) All equations used are the standard statistical mechanics
      equations for an ideal gas
  (5) All vibrations are strictly harmonic

freq.      37.98  E(vib)   ...       0.54 
freq.      57.63  E(vib)   ...       0.51 
freq.      58.00  E(vib)   ...       0.51 
freq.      72.07  E(vib)   ...       0.50 
freq.      72.73  E(vib)   ...       0.49 
freq.      72.85  E(vib)   ...       0.49 
freq.      79.64  E(vib)   ...       0.49 
freq.      92.65  E(vib)   ...       0.47 
freq.      92.73  E(vib)   ...       0.47 
freq.     237.80  E(vib)   ...       0.32 
freq.     354.07  E(vib)   ...       0.22 
freq.     367.01  E(vib)   ...       0.22 
freq.     368.53  E(vib)   ...       0.21 
freq.     398.88  E(vib)   ...       0.19 
freq.     404.10  E(vib)   ...       0.19 
freq.     404.22  E(vib)   ...       0.19 
freq.     406.25  E(vib)   ...       0.19 
freq.     472.35  E(vib)   ...       0.15 
freq.     490.72  E(vib)   ...       0.15 
freq.     534.94  E(vib)   ...       0.13 
freq.     560.52  E(vib)   ...       0.11 
freq.     560.60  E(vib)   ...       0.11 
freq.     615.71  E(vib)   ...       0.10 
freq.     615.85  E(vib)   ...       0.10 
freq.     628.81  E(vib)   ...       0.09 
freq.    1916.08  E(vib)   ...       0.00 
freq.    1989.31  E(vib)   ...       0.00 
freq.    1989.88  E(vib)   ...       0.00 
freq.    2022.61  E(vib)   ...       0.00 
freq.    2111.94  E(vib)   ...       0.00 

------------
INNER ENERGY
------------

The inner energy is: U= E(el) + E(ZPE) + E(vib) + E(rot) + E(trans)
    E(el)   - is the total energy from the electronic structure calculation
              = E(kin-el) + E(nuc-el) + E(el-el) + E(nuc-nuc)
    E(ZPE)  - the the zero temperature vibrational energy from the frequency calculation
    E(vib)  - the the finite temperature correction to E(ZPE) due to population
              of excited vibrational states
    E(rot)  - is the rotational thermal energy
    E(trans)- is the translational thermal energy

Summary of contributions to the inner energy U:
Electronic energy                ...  -1095.24400732 Eh
Zero point energy                ...      0.04120400 Eh      25.86 kcal/mol
Thermal vibrational correction   ...      0.01139719 Eh       7.15 kcal/mol
Thermal rotational correction    ...      0.00141627 Eh       0.89 kcal/mol
Thermal translational correction ...      0.00141627 Eh       0.89 kcal/mol
-----------------------------------------------------------------------
Total thermal energy                  -1095.18857358 Eh


Summary of corrections to the electronic energy:
(perhaps to be used in another calculation)
Total thermal correction                  0.01422974 Eh       8.93 kcal/mol
Non-thermal (ZPE) correction              0.04120400 Eh      25.86 kcal/mol
-----------------------------------------------------------------------
Total correction                          0.05543374 Eh      34.79 kcal/mol


--------
ENTHALPY
--------

The enthalpy is H = U + kB*T
                kB is Boltzmann's constant
Total free energy                 ...  -1095.18857358 Eh 
Thermal Enthalpy correction       ...      0.00094421 Eh       0.59 kcal/mol
-----------------------------------------------------------------------
Total Enthalpy                    ...  -1095.18762937 Eh


Note: Only C1 symmetry has been detected, increase convergence thresholds 
      if your molecule has a higher symmetry. Symmetry factor of 1.0 is   
      used for the rotational entropy correction. 
 

Note: Rotational entropy computed according to Herzberg 
Infrared and Raman Spectra, Chapter V,1, Van Nostrand Reinhold, 1945 
Point Group:  C1, Symmetry Number:   1  
Rotational constants in cm-1:     0.019548     0.019247     0.019238 

Vibrational entropy computed according to the QRRHO of S. Grimme
Chem.Eur.J. 2012 18 9955


-------
ENTROPY
-------

The entropy contributions are T*S = T*(S(el)+S(vib)+S(rot)+S(trans))
     S(el)   - electronic entropy
     S(vib)  - vibrational entropy
     S(rot)  - rotational entropy
     S(trans)- translational entropy
The entropies will be listed as multiplied by the temperature to get
units of energy

Electronic entropy                ...      0.00000000 Eh      0.00 kcal/mol
Vibrational entropy               ...      0.02090661 Eh     13.12 kcal/mol
Rotational entropy                ...      0.01509853 Eh      9.47 kcal/mol
Translational entropy             ...      0.02028551 Eh     12.73 kcal/mol
-----------------------------------------------------------------------
Final entropy term                ...      0.05629064 Eh     35.32 kcal/mol

In case the symmetry of your molecule has not been determined correctly
or in case you have a reason to use a different symmetry number we print 
out the resulting rotational entropy values for sn=1,12 :
 --------------------------------------------------------
|  sn= 1 | S(rot)=       0.01509853 Eh      9.47 kcal/mol|
|  sn= 2 | S(rot)=       0.01444407 Eh      9.06 kcal/mol|
|  sn= 3 | S(rot)=       0.01406124 Eh      8.82 kcal/mol|
|  sn= 4 | S(rot)=       0.01378961 Eh      8.65 kcal/mol|
|  sn= 5 | S(rot)=       0.01357892 Eh      8.52 kcal/mol|
|  sn= 6 | S(rot)=       0.01340678 Eh      8.41 kcal/mol|
|  sn= 7 | S(rot)=       0.01326123 Eh      8.32 kcal/mol|
|  sn= 8 | S(rot)=       0.01313516 Eh      8.24 kcal/mol|
|  sn= 9 | S(rot)=       0.01302395 Eh      8.17 kcal/mol|
|  sn=10 | S(rot)=       0.01292447 Eh      8.11 kcal/mol|
|  sn=11 | S(rot)=       0.01283448 Eh      8.05 kcal/mol|
|  sn=12 | S(rot)=       0.01275232 Eh      8.00 kcal/mol|
 --------------------------------------------------------


-------------------
GIBBS FREE ENERGY
-------------------

The Gibbs free energy is G = H - T*S

Total enthalpy                    ...  -1095.18762937 Eh 
Total entropy correction          ...     -0.05629064 Eh    -35.32 kcal/mol
-----------------------------------------------------------------------
Final Gibbs free energy         ...  -1095.24392001 Eh

For completeness - the Gibbs free energy minus the electronic energy
G-E(el)                           ...      0.00008730 Eh      0.05 kcal/mol


Timings for individual modules:

Sum of individual times         ...     2031.333 sec (=  33.856 min)
GTO integral calculation        ...       15.734 sec (=   0.262 min)   0.8 %
SCF iterations                  ...      644.828 sec (=  10.747 min)  31.7 %
SCF Gradient evaluation         ...      193.446 sec (=   3.224 min)   9.5 %
Geometry relaxation             ...        0.425 sec (=   0.007 min)   0.0 %
Analytical frequency calculation...     1176.900 sec (=  19.615 min)  57.9 %
                             ****ORCA TERMINATED NORMALLY****
TOTAL RUN TIME: 0 days 0 hours 33 minutes 53 seconds 106 msec
