
                                 *****************
                                 * O   R   C   A *
                                 *****************

                                            #,                                       
                                            ###                                      
                                            ####                                     
                                            #####                                    
                                            ######                                   
                                           ########,                                 
                                     ,,################,,,,,                         
                               ,,#################################,,                 
                          ,,##########################################,,             
                       ,#########################################, ''#####,          
                    ,#############################################,,   '####,        
                  ,##################################################,,,,####,       
                ,###########''''           ''''###############################       
              ,#####''   ,,,,##########,,,,          '''####'''          '####       
            ,##' ,,,,###########################,,,                        '##       
           ' ,,###''''                  '''############,,,                           
         ,,##''                                '''############,,,,        ,,,,,,###''
      ,#''                                            '''#######################'''  
     '                                                          ''''####''''         
             ,#######,   #######,   ,#######,      ##                                
            ,#'     '#,  ##    ##  ,#'     '#,    #''#        ######   ,####,        
            ##       ##  ##   ,#'  ##            #'  '#       #        #'  '#        
            ##       ##  #######   ##           ,######,      #####,   #    #        
            '#,     ,#'  ##    ##  '#,     ,#' ,#      #,         ##   #,  ,#        
             '#######'   ##     ##  '#######'  #'      '#     #####' # '####'        



                  #######################################################
                  #                        -***-                        #
                  #          Department of theory and spectroscopy      #
                  #    Directorship and core code : Frank Neese         #
                  #        Max Planck Institute fuer Kohlenforschung    #
                  #                Kaiser Wilhelm Platz 1               #
                  #                 D-45470 Muelheim/Ruhr               #
                  #                      Germany                        #
                  #                                                     #
                  #                  All rights reserved                #
                  #                        -***-                        #
                  #######################################################



                         Program Version 5.0.4 -  RELEASE  -

 With contributions from (in alphabetic order):
   Daniel Aravena         : Magnetic Suceptibility
   Michael Atanasov       : Ab Initio Ligand Field Theory (pilot matlab implementation)
   Alexander A. Auer      : GIAO ZORA, VPT2 properties, NMR spectrum
   Ute Becker             : Parallelization
   Giovanni Bistoni       : ED, misc. LED, open-shell LED, HFLD
   Martin Brehm           : Molecular dynamics
   Dmytro Bykov           : SCF Hessian
   Vijay G. Chilkuri      : MRCI spin determinant printing, contributions to CSF-ICE
   Dipayan Datta          : RHF DLPNO-CCSD density
   Achintya Kumar Dutta   : EOM-CC, STEOM-CC
   Dmitry Ganyushin       : Spin-Orbit,Spin-Spin,Magnetic field MRCI
   Miquel Garcia          : C-PCM and meta-GGA Hessian, CC/C-PCM, Gaussian charge scheme
   Yang Guo               : DLPNO-NEVPT2, F12-NEVPT2, CIM, IAO-localization
   Andreas Hansen         : Spin unrestricted coupled pair/coupled cluster methods
   Benjamin Helmich-Paris : MC-RPA, TRAH-SCF, COSX integrals
   Lee Huntington         : MR-EOM, pCC
   Robert Izsak           : Overlap fitted RIJCOSX, COSX-SCS-MP3, EOM
   Marcus Kettner         : VPT2
   Christian Kollmar      : KDIIS, OOCD, Brueckner-CCSD(T), CCSD density, CASPT2, CASPT2-K
   Simone Kossmann        : Meta GGA functionals, TD-DFT gradient, OOMP2, MP2 Hessian
   Martin Krupicka        : Initial AUTO-CI
   Lucas Lang             : DCDCAS
   Marvin Lechner         : AUTO-CI (C++ implementation), FIC-MRCC
   Dagmar Lenk            : GEPOL surface, SMD
   Dimitrios Liakos       : Extrapolation schemes; Compound Job, initial MDCI parallelization
   Dimitrios Manganas     : Further ROCIS development; embedding schemes
   Dimitrios Pantazis     : SARC Basis sets
   Anastasios Papadopoulos: AUTO-CI, single reference methods and gradients
   Taras Petrenko         : DFT Hessian,TD-DFT gradient, ASA, ECA, R-Raman, ABS, FL, XAS/XES, NRVS
   Peter Pinski           : DLPNO-MP2, DLPNO-MP2 Gradient
   Christoph Reimann      : Effective Core Potentials
   Marius Retegan         : Local ZFS, SOC
   Christoph Riplinger    : Optimizer, TS searches, QM/MM, DLPNO-CCSD(T), (RO)-DLPNO pert. Triples
   Tobias Risthaus        : Range-separated hybrids, TD-DFT gradient, RPA, STAB
   Michael Roemelt        : Original ROCIS implementation
   Masaaki Saitow         : Open-shell DLPNO-CCSD energy and density
   Barbara Sandhoefer     : DKH picture change effects
   Avijit Sen             : IP-ROCIS
   Kantharuban Sivalingam : CASSCF convergence, NEVPT2, FIC-MRCI
   Bernardo de Souza      : ESD, SOC TD-DFT
   Georgi Stoychev        : AutoAux, RI-MP2 NMR, DLPNO-MP2 response
   Willem Van den Heuvel  : Paramagnetic NMR
   Boris Wezisla          : Elementary symmetry handling
   Frank Wennmohs         : Technical directorship


 We gratefully acknowledge several colleagues who have allowed us to
 interface, adapt or use parts of their codes:
   Stefan Grimme, W. Hujo, H. Kruse, P. Pracht,  : VdW corrections, initial TS optimization,
                  C. Bannwarth, S. Ehlert          DFT functionals, gCP, sTDA/sTD-DF
   Ed Valeev, F. Pavosevic, A. Kumar             : LibInt (2-el integral package), F12 methods
   Garnet Chan, S. Sharma, J. Yang, R. Olivares  : DMRG
   Ulf Ekstrom                                   : XCFun DFT Library
   Mihaly Kallay                                 : mrcc  (arbitrary order and MRCC methods)
   Jiri Pittner, Ondrej Demel                    : Mk-CCSD
   Frank Weinhold                                : gennbo (NPA and NBO analysis)
   Christopher J. Cramer and Donald G. Truhlar   : smd solvation model
   Lars Goerigk                                  : TD-DFT with DH, B97 family of functionals
   V. Asgeirsson, H. Jonsson                     : NEB implementation
   FAccTs GmbH                                   : IRC, NEB, NEB-TS, DLPNO-Multilevel, CI-OPT
                                                   MM, QMMM, 2- and 3-layer-ONIOM, Crystal-QMMM,
                                                   LR-CPCM, SF, NACMEs, symmetry and pop. for TD-DFT,
                                                   nearIR, NL-DFT gradient (VV10), updates on ESD,
                                                   ML-optimized integration grids
   S Lehtola, MJT Oliveira, MAL Marques          : LibXC Library
   Liviu Ungur et al                             : ANISO software


 Your calculation uses the libint2 library for the computation of 2-el integrals
 For citations please refer to: http://libint.valeyev.net

 Your ORCA version has been built with support for libXC version: 5.1.0
 For citations please refer to: https://tddft.org/programs/libxc/

 This ORCA versions uses:
   CBLAS   interface :  Fast vector & matrix operations
   LAPACKE interface :  Fast linear algebra routines
   Shared memory     :  Shared parallel matrices


================================================================================

cite the ECPs for Os [Def2-ECP] as follows:
Ce-Yb(ecp-28): M. Dolg, H. Stoll, H.Preuss, J. Chem. Phys., 1989, 90, 1730-1734.
Y-Cd(ecp-28), Hf-Hg(ecp-46): D. Andrae,U. Haeussermann, M. Dolg, H. Stoll, H. Preuss, Theor. Chim. Acta, 1990, 77, 123-141.
In-Sb(ecp-28), Tl-Bi(ecp-46): B. Metz, H. Stoll, M. Dolg, J. Chem. Phys., 2000, 113, 2563-2569.
Te-Xe(ecp-28), Po-Rn(ecp-46): K. A. Peterson, D. Figgen, E. Goll, H. Stoll, M. Dolg, J. Chem. Phys., 2003, 119, 11113-11123.
Rb(ecp-28), Cs(ecp-46): T. Leininger, A. Nicklass, W. Kuechle, H. Stoll, M. Dolg, A. Bergner, Chem. Phys. Lett., 1996, 255, 274-280.
Sr(ecp-28), Ba(ecp-46): M. Kaupp, P. V. Schleyer, H. Stoll and H. Preuss, J. Chem. Phys., 1991, 94, 1360-1366.
La(ecp-46): M. Dolg, H. Stoll, A. Savin, H. Preuss, Theor. Chim. Acta, 1989, 75, 173-194.
Lu(ecp-28): X. Cao, M. Dolg, J. Chem. Phys., 2001, 115, 7348-7355.

ECP parameters for Os [Def2-ECP] have been obtained from:
TURBOMOLE (7.0.2)

----- Orbital basis set information -----
Your calculation utilizes the basis: def2-TZVPD
   F. Weigend and R. Ahlrichs, Phys. Chem. Chem. Phys. 7, 3297 (2005).
   D. Rappoport and F. Furche, J. Chem. Phys. 133 134105 (2010).

----- AuxJ basis set information -----
Your calculation utilizes the auxiliary basis: def2/J
   F. Weigend, Phys. Chem. Chem. Phys. 8, 1057 (2006).

================================================================================
                                        WARNINGS
                       Please study these warnings very carefully!
================================================================================


WARNING: Geometry Optimization
  ===> : Switching off AutoStart
         For restart on a previous wavefunction, please use MOREAD

INFO   : the flag for use of the SHARK integral package has been found!

================================================================================
                                       INPUT FILE
================================================================================
NAME = OsCO6.inp
|  1> !B3LYP def2-TZVPD OPT FREQ TightSCF PAL8
|  2> 
|  3> %scf
|  4>   MaxIter 300
|  5> end
|  6> 
|  7> * xyz 0 1 
|  8> Os        -0.37519        0.91836        0.03664
|  9> C          1.70167        0.95580        0.04021
| 10> C         -0.41286        2.99488        0.07459
| 11> C         -2.45197        0.87982        0.03305
| 12> C         -0.33838       -1.15810       -0.00138
| 13> O         -0.43334        4.12246        0.09483
| 14> O          2.82947        0.97606        0.04211
| 15> O         -0.31881       -2.28580       -0.02171
| 16> O         -3.57979        0.85842        0.03112
| 17> C         -0.37184        0.95835       -2.04013
| 18> C         -0.37782        0.87948        2.11345
| 19> O         -0.36983        0.98067       -3.16792
| 20> O         -0.37912        0.85829        3.24125
| 21> **                         ****END OF INPUT****
================================================================================

                       *****************************
                       * Geometry Optimization Run *
                       *****************************

Geometry optimization settings:
Update method            Update   .... BFGS
Choice of coordinates    CoordSys .... Z-matrix Internals
Initial Hessian          InHess   .... Almoef's Model

Convergence Tolerances:
Energy Change            TolE     ....  5.0000e-06 Eh
Max. Gradient            TolMAXG  ....  3.0000e-04 Eh/bohr
RMS Gradient             TolRMSG  ....  1.0000e-04 Eh/bohr
Max. Displacement        TolMAXD  ....  4.0000e-03 bohr
RMS Displacement         TolRMSD  ....  2.0000e-03 bohr
Strict Convergence                ....  False
------------------------------------------------------------------------------
                        ORCA OPTIMIZATION COORDINATE SETUP
------------------------------------------------------------------------------

The optimization will be done in new redundant internal coordinates
Making redundant internal coordinates   ...  (new redundants) done
Evaluating the initial hessian          ...  (Almloef) done
Evaluating the coordinates              ...  done
Calculating the B-matrix                .... done
Calculating the G-matrix                .... done
Diagonalizing the G-matrix              .... done
The first mode is                       ....    3
The number of degrees of freedom        ....   33

    -----------------------------------------------------------------
                    Redundant Internal Coordinates


    -----------------------------------------------------------------
         Definition                    Initial Value    Approx d2E/dq
    -----------------------------------------------------------------
      1. B(C   1,Os  0)                  2.0772         0.116494   
      2. B(C   2,Os  0)                  2.0772         0.116491   
      3. B(C   3,Os  0)                  2.0771         0.116520   
      4. B(C   4,Os  0)                  2.0771         0.116523   
      5. B(O   5,C   2)                  1.1279         1.465424   
      6. B(O   6,C   1)                  1.1280         1.465231   
      7. B(O   7,C   4)                  1.1281         1.464857   
      8. B(O   8,C   3)                  1.1280         1.465009   
      9. B(C   9,Os  0)                  2.0772         0.116513   
     10. B(C  10,Os  0)                  2.0772         0.116505   
     11. B(O  11,C   9)                  1.1280         1.465074   
     12. B(O  12,C  10)                  1.1280         1.465143   
     13. A(C   3,Os  0,C   9)           90.0138         0.270986   
     14. A(C   2,Os  0,C   9)           89.9455         0.270976   
     15. A(C   1,Os  0,C  10)           89.9934         0.270974   
     16. A(C   4,Os  0,C  10)           89.9777         0.270984   
     17. A(C   2,Os  0,C  10)           90.0242         0.270973   
     18. A(C   4,Os  0,C   9)           90.0525         0.270987   
     19. A(C   3,Os  0,C  10)           90.0066         0.270983   
     20. A(C   3,Os  0,C   4)           89.9506         0.270990   
     21. A(C   1,Os  0,C   2)           90.0047         0.270969   
     22. A(C   2,Os  0,C   3)           90.0257         0.270978   
     23. A(C   1,Os  0,C   4)           90.0190         0.270980   
     24. A(C   1,Os  0,C   9)           89.9862         0.270977   
     25. L(Os  0,C   1,O   6,C   9, 1) 179.9981         0.390928   
     26. L(Os  0,C   1,O   6,C   9, 2) 180.0052         0.390928   
     27. L(Os  0,C   2,O   5,C   9, 2) 179.9982         0.390935   
     28. L(Os  0,C   2,O   5,C   9, 1) 179.9813         0.390935   
     29. L(Os  0,C   3,O   8,C   4, 2) 179.9980         0.390933   
     30. L(Os  0,C   3,O   8,C   4, 1) 179.9761         0.390933   
     31. L(Os  0,C   4,O   7,C   3, 2) 180.0229         0.390927   
     32. L(Os  0,C   4,O   7,C   3, 1) 179.9786         0.390927   
     33. L(Os  0,C   9,O  11,C   2, 2) 179.9855         0.390931   
     34. L(Os  0,C   9,O  11,C   2, 1) 179.9695         0.390931   
     35. L(Os  0,C  10,O  12,C   4, 2) 179.9909         0.390930   
     36. L(Os  0,C  10,O  12,C   4, 1) 179.9960         0.390930   
    -----------------------------------------------------------------

Number of atoms                         .... 13
Number of degrees of freedom            .... 36

         *************************************************************
         *                GEOMETRY OPTIMIZATION CYCLE   1            *
         *************************************************************
---------------------------------
CARTESIAN COORDINATES (ANGSTROEM)
---------------------------------
  Os    -0.375190    0.918360    0.036640
  C      1.701670    0.955800    0.040210
  C     -0.412860    2.994880    0.074590
  C     -2.451970    0.879820    0.033050
  C     -0.338380   -1.158100   -0.001380
  O     -0.433340    4.122460    0.094830
  O      2.829470    0.976060    0.042110
  O     -0.318810   -2.285800   -0.021710
  O     -3.579790    0.858420    0.031120
  C     -0.371840    0.958350   -2.040130
  C     -0.377820    0.879480    2.113450
  O     -0.369830    0.980670   -3.167920
  O     -0.379120    0.858290    3.241250

----------------------------
CARTESIAN COORDINATES (A.U.)
----------------------------
  NO LB      ZA    FRAG     MASS         X           Y           Z
   0 Os   16.0000*   0   190.200   -0.709006    1.735449    0.069240
   1 C     6.0000    0    12.011    3.215690    1.806200    0.075986
   2 C     6.0000    0    12.011   -0.780192    5.659503    0.140955
   3 C     6.0000    0    12.011   -4.633552    1.662619    0.062455
   4 C     6.0000    0    12.011   -0.639446   -2.188492   -0.002608
   5 O     8.0000    0    15.999   -0.818894    7.790320    0.179203
   6 O     8.0000    0    15.999    5.346923    1.844486    0.079576
   7 O     8.0000    0    15.999   -0.602464   -4.319536   -0.041026
   8 O     8.0000    0    15.999   -6.764823    1.622179    0.058808
   9 C     6.0000    0    12.011   -0.702676    1.811019   -3.855287
  10 C     6.0000    0    12.011   -0.713976    1.661976    3.993842
  11 O     8.0000    0    15.999   -0.698877    1.853198   -5.986501
  12 O     8.0000    0    15.999   -0.716433    1.621933    6.125075
* core charge reduced due to ECP

--------------------------------
INTERNAL COORDINATES (ANGSTROEM)
--------------------------------
 Os     0   0   0     0.000000000000     0.00000000     0.00000000
 C      1   0   0     2.077200509845     0.00000000     0.00000000
 C      1   2   0     2.077208353007    90.00471305     0.00000000
 C      1   2   3     2.077140676050   179.96961773   180.00103718
 C      1   2   3     2.077134234492    90.01897867   179.99807210
 O      3   1   2     1.127947580520   179.98129853    93.93734075
 O      2   1   3     1.127983562646   179.99589098   207.46927600
 O      5   1   2     1.128053005758   179.97320216   142.83553627
 O      4   1   5     1.128024661654   179.97609052     3.43596046
 C      1   2   3     2.077157686720    89.98618107    89.94554842
 C      1   2   3     2.077175569710    89.99340818   269.97581812
 O     10   1   2     1.128012635833   179.96785996   288.58094428
 O     11   1   2     1.127999798803   179.99241863   328.16770095

---------------------------
INTERNAL COORDINATES (A.U.)
---------------------------
 Os     0   0   0     0.000000000000     0.00000000     0.00000000
 C      1   0   0     3.925340088848     0.00000000     0.00000000
 C      1   2   0     3.925354910276    90.00471305     0.00000000
 C      1   2   3     3.925227019362   179.96961773   180.00103718
 C      1   2   3     3.925214846583    90.01897867   179.99807210
 O      3   1   2     2.131512020601   179.98129853    93.93734075
 O      2   1   3     2.131580016966   179.99589098   207.46927600
 O      5   1   2     2.131711245430   179.97320216   142.83553627
 O      4   1   5     2.131657682836   179.97609052     3.43596046
 C      1   2   3     3.925259164870    89.98618107    89.94554842
 C      1   2   3     3.925292958824    89.99340818   269.97581812
 O     10   1   2     2.131634957328   179.96785996   288.58094428
 O     11   1   2     2.131610698856   179.99241863   328.16770095

---------------------
BASIS SET INFORMATION
---------------------
There are 3 groups of distinct atoms

 Group   1 Type Os  : 8s8p6d1f contracted to 6s5p3d1f pattern {311111/41111/411/1}
 Group   2 Type C   : 12s6p3d1f contracted to 6s3p3d1f pattern {621111/411/111/1}
 Group   3 Type O   : 12s7p3d1f contracted to 6s4p3d1f pattern {621111/4111/111/1}

Atom   0Os   basis set group =>   1
Atom   1C    basis set group =>   2
Atom   2C    basis set group =>   2
Atom   3C    basis set group =>   2
Atom   4C    basis set group =>   2
Atom   5O    basis set group =>   3
Atom   6O    basis set group =>   3
Atom   7O    basis set group =>   3
Atom   8O    basis set group =>   3
Atom   9C    basis set group =>   2
Atom  10C    basis set group =>   2
Atom  11O    basis set group =>   3
Atom  12O    basis set group =>   3
---------------------------------
AUXILIARY/J BASIS SET INFORMATION
---------------------------------
There are 3 groups of distinct atoms

 Group   1 Type Os  : 11s5p5d3f3g contracted to 8s5p5d2f3g pattern {41111111/11111/11111/21/111}
 Group   2 Type C   : 12s5p4d2f1g contracted to 6s4p3d1f1g pattern {711111/2111/211/2/1}
 Group   3 Type O   : 12s5p4d2f1g contracted to 6s4p3d1f1g pattern {711111/2111/211/2/1}

Atom   0Os   basis set group =>   1
Atom   1C    basis set group =>   2
Atom   2C    basis set group =>   2
Atom   3C    basis set group =>   2
Atom   4C    basis set group =>   2
Atom   5O    basis set group =>   3
Atom   6O    basis set group =>   3
Atom   7O    basis set group =>   3
Atom   8O    basis set group =>   3
Atom   9C    basis set group =>   2
Atom  10C    basis set group =>   2
Atom  11O    basis set group =>   3
Atom  12O    basis set group =>   3
-------------------------
ECP PARAMETER INFORMATION
-------------------------

 Group 1, Type Os ECP Def2-ECP (replacing 60 core electrons, lmax=3)

Atom   0Os   ECP group =>   1



           ************************************************************
           *        Program running with 8 parallel MPI-processes     *
           *              working on a common directory               *
           ************************************************************
------------------------------------------------------------------------------
                           ORCA GTO INTEGRAL CALCULATION
                           -- RI-GTO INTEGRALS CHOSEN --
------------------------------------------------------------------------------
------------------------------------------------------------------------------
                   ___                                                        
                  /   \      - P O W E R E D   B Y -                         
                 /     \                                                     
                 |  |  |   _    _      __       _____    __    __             
                 |  |  |  | |  | |    /  \     |  _  \  |  |  /  |          
                  \  \/   | |  | |   /    \    | | | |  |  | /  /          
                 / \  \   | |__| |  /  /\  \   | |_| |  |  |/  /          
                |  |  |   |  __  | /  /__\  \  |    /   |      \           
                |  |  |   | |  | | |   __   |  |    \   |  |\   \          
                \     /   | |  | | |  |  |  |  | |\  \  |  | \   \       
                 \___/    |_|  |_| |__|  |__|  |_| \__\ |__|  \__/        
                                                                              
                      - O R C A' S   B I G   F R I E N D -                    
                                      &                                       
                       - I N T E G R A L  F E E D E R -                       
                                                                              
 v1 FN, 2020, v2 2021                                                         
------------------------------------------------------------------------------


Reading SHARK input file OsCO6.SHARKINP.tmp ... ok
----------------------
SHARK INTEGRAL PACKAGE
----------------------

Number of atoms                             ...     13
Number of basis functions                   ...    505
Number of shells                            ...    177
Maximum angular momentum                    ...      3
Integral batch strategy                     ... SHARK/LIBINT Hybrid
RI-J (if used) integral strategy            ... SPLIT-RIJ (Revised 2003 algorithm where possible)
Printlevel                                  ...      1
Contraction scheme used                     ... SEGMENTED contraction
Coulomb Range Separation                    ... NOT USED
Exchange Range Separation                   ... NOT USED
Finite Nucleus Model                        ... NOT USED
Auxiliary Coulomb fitting basis             ... AVAILABLE
   # of basis functions in Aux-J            ...    677
   # of shells in Aux-J                     ...    203
   Maximum angular momentum in Aux-J        ...      4
Auxiliary J/K fitting basis                 ... NOT available
Auxiliary Correlation fitting basis         ... NOT available
Auxiliary 'external' fitting basis          ... NOT available
Integral threshold                          ...     2.500000e-11
Primitive cut-off                           ...     2.500000e-12
Primitive pair pre-selection threshold      ...     2.500000e-12

Calculating pre-screening integrals         ... done (  0.1 sec) Dimension = 177
Organizing shell pair data                  ... done (  0.2 sec)
Shell pair information
Total number of shell pairs                 ...     15753
Shell pairs after pre-screening             ...     13678
Total number of primitive shell pairs       ...     43350
Primitive shell pairs kept                  ...     27558
          la=0 lb=0:   2457 shell pairs
          la=1 lb=0:   3306 shell pairs
          la=1 lb=1:   1092 shell pairs
          la=2 lb=0:   2610 shell pairs
          la=2 lb=1:   1665 shell pairs
          la=2 lb=2:    694 shell pairs
          la=3 lb=0:    762 shell pairs
          la=3 lb=1:    563 shell pairs
          la=3 lb=2:    459 shell pairs
          la=3 lb=3:     70 shell pairs

Calculating one electron integrals          ... done (  0.0 sec)
Calculating ECP integrals                   ... done (  1.4 sec)
Calculating RI/J V-Matrix + Cholesky decomp.... done (  0.1 sec)
Calculating Nuclear repulsion               ... done (  0.0 sec) ENN=    794.195674529270 Eh

SHARK setup successfully completed in   2.2 seconds

Maximum memory used throughout the entire GTOINT-calculation: 25.7 MB


           ************************************************************
           *        Program running with 8 parallel MPI-processes     *
           *              working on a common directory               *
           ************************************************************
-------------------------------------------------------------------------------
                                 ORCA SCF
-------------------------------------------------------------------------------

------------
SCF SETTINGS
------------
Hamiltonian:
 Density Functional     Method          .... DFT(GTOs)
 Exchange Functional    Exchange        .... B88
   X-Alpha parameter    XAlpha          ....  0.666667
   Becke's b parameter  XBeta           ....  0.004200
 Correlation Functional Correlation     .... LYP
 LDA part of GGA corr.  LDAOpt          .... VWN-5
 Gradients option       PostSCFGGA      .... off
 Hybrid DFT is turned on
   Fraction HF Exchange ScalHFX         ....  0.200000
   Scaling of DF-GGA-X  ScalDFX         ....  0.720000
   Scaling of DF-GGA-C  ScalDFC         ....  0.810000
   Scaling of DF-LDA-C  ScalLDAC        ....  1.000000
   Perturbative correction              ....  0.000000
   Density functional embedding theory  .... OFF
   NL short-range parameter             ....  4.800000
 RI-approximation to the Coulomb term is turned on
   Number of AuxJ basis functions       .... 677
   RIJ-COSX (HFX calculated with COS-X)).... on


General Settings:
 Integral files         IntName         .... OsCO6
 Hartree-Fock type      HFTyp           .... RHF
 Total Charge           Charge          ....    0
 Multiplicity           Mult            ....    1
 Number of Electrons    NEL             ....  100
 Basis Dimension        Dim             ....  505
 Nuclear Repulsion      ENuc            ....    794.1956745293 Eh

Convergence Acceleration:
 DIIS                   CNVDIIS         .... on
   Start iteration      DIISMaxIt       ....    12
   Startup error        DIISStart       ....  0.200000
   # of expansion vecs  DIISMaxEq       ....     5
   Bias factor          DIISBfac        ....   1.050
   Max. coefficient     DIISMaxC        ....  10.000
 Trust-Rad. Augm. Hess. CNVTRAH         .... auto
   Auto Start mean grad. ratio tolernc. ....  1.125000
   Auto Start start iteration           ....    20
   Auto Start num. interpolation iter.  ....    10
   Max. Number of Micro iterations      ....    16
   Max. Number of Macro iterations      .... Maxiter - #DIIS iter
   Number of Davidson start vectors     ....     2
   Converg. threshold I  (grad. norm)   ....   1.000e-05
   Converg. threshold II (energy diff.) ....   1.000e-08
   Grad. Scal. Fac. for Micro threshold ....   0.100
   Minimum threshold for Micro iter.    ....   0.010
   NR start threshold (gradient norm)   ....   0.001
   Initial trust radius                 ....   0.400
   Minimum AH scaling param. (alpha)    ....   1.000
   Maximum AH scaling param. (alpha)    .... 1000.000
   Orbital update algorithm             .... Taylor
   White noise on init. David. guess    .... on
   Maximum white noise                  ....   0.010
   Quad. conv. algorithm                .... NR
 SOSCF                  CNVSOSCF        .... off
 Level Shifting         CNVShift        .... on
   Level shift para.    LevelShift      ....    0.2500
   Turn off err/grad.   ShiftErr        ....    0.0010
 Zerner damping         CNVZerner       .... off
 Static damping         CNVDamp         .... on
   Fraction old density DampFac         ....    0.7000
   Max. Damping (<1)    DampMax         ....    0.9800
   Min. Damping (>=0)   DampMin         ....    0.0000
   Turn off err/grad.   DampErr         ....    0.1000
 Fernandez-Rico         CNVRico         .... off

SCF Procedure:
 Maximum # iterations   MaxIter         ....   300
 SCF integral mode      SCFMode         .... Direct
   Integral package                     .... SHARK and LIBINT hybrid scheme
 Reset frequency        DirectResetFreq ....    20
 Integral Threshold     Thresh          ....  2.500e-11 Eh
 Primitive CutOff       TCut            ....  2.500e-12 Eh

Convergence Tolerance:
 Convergence Check Mode ConvCheckMode   .... Total+1el-Energy
 Convergence forced     ConvForced      .... 0
 Energy Change          TolE            ....  1.000e-08 Eh
 1-El. energy change                    ....  1.000e-05 Eh
 DIIS Error             TolErr          ....  5.000e-07


Diagonalization of the overlap matrix:
Smallest eigenvalue                        ... 1.548e-05
Time for diagonalization                   ...    0.081 sec
Threshold for overlap eigenvalues          ... 1.000e-08
Number of eigenvalues below threshold      ... 0
Time for construction of square roots      ...    0.121 sec
Total time needed                          ...    0.203 sec

Time for model grid setup =    0.163 sec

------------------------------
INITIAL GUESS: MODEL POTENTIAL
------------------------------
Loading Hartree-Fock densities                     ... done
  calling C:\orca_5_0_4\orca OsCO6_atom76.inp > OsCO6_atom76.out in order to generate an atomic fitting density for atom 0 (Os with ECP) on-the-fly... 
    atom 0 (Os), assumed electronic state with S=5: 1s2 2s2 2p6 3s2 3p6 4s2 3d10 4p6 5s2 4d10 5p6 6s2 4f14 5d6           ... done
Calculating cut-offs                               ... done
Initializing the effective Hamiltonian             ... done
Setting up the integral package (SHARK)            ... done
Starting the Coulomb interaction                   ... done (   0.2 sec)
Reading the grid                                   ... done
Mapping shells                                     ... done
Starting the XC term evaluation                    ... done (   0.3 sec)
  promolecular density results
     # of electrons  =    160.004762694
     EX              =   -422.160579010
     EC              =     -7.120809671
     EX+EC           =   -429.281388681
Transforming the Hamiltonian                       ... done (   0.1 sec)
Diagonalizing the Hamiltonian                      ... done (   0.1 sec)
Back transforming the eigenvectors                 ... done (   0.0 sec)
Now organizing SCF variables                       ... done
                      ------------------
                      INITIAL GUESS DONE (   3.6 sec)
                      ------------------
-------------------
DFT GRID GENERATION
-------------------

General Integration Accuracy     IntAcc      ... 4.388
Radial Grid Type                 RadialGrid  ... OptM3 with GC (2021)
Angular Grid (max. ang.)         AngularGrid ... 4 (Lebedev-302)
Angular grid pruning method      GridPruning ... 4 (adaptive)
Weight generation scheme         WeightScheme... Becke
Basis function cutoff            BFCut       ... 1.0000e-11
Integration weight cutoff        WCut        ... 1.0000e-14
Angular grids for H and He will be reduced by one unit
Partially contracted basis set               ... off
Rotationally invariant grid construction     ... off

Total number of grid points                  ...    88417
Total number of batches                      ...     1389
Average number of points per batch           ...       63
Average number of grid points per atom       ...     6801
Time for grid setup =    0.655 sec

--------------------
COSX GRID GENERATION
--------------------

GRIDX 1
-------
General Integration Accuracy     IntAcc      ... 3.816
Radial Grid Type                 RadialGrid  ... OptM3 with GC (2021)
Angular Grid (max. ang.)         AngularGrid ... 1 (Lebedev-50)
Angular grid pruning method      GridPruning ... 4 (adaptive)
Weight generation scheme         WeightScheme... Becke
Basis function cutoff            BFCut       ... 1.0000e-11
Integration weight cutoff        WCut        ... 1.0000e-14
Angular grids for H and He will be reduced by one unit
Partially contracted basis set               ... on
Rotationally invariant grid construction     ... off

Total number of grid points                  ...    11127
Total number of batches                      ...      181
Average number of points per batch           ...       61
Average number of grid points per atom       ...      856
UseSFitting                                  ... on

GRIDX 2
-------
General Integration Accuracy     IntAcc      ... 4.020
Radial Grid Type                 RadialGrid  ... OptM3 with GC (2021)
Angular Grid (max. ang.)         AngularGrid ... 2 (Lebedev-110)
Angular grid pruning method      GridPruning ... 4 (adaptive)
Weight generation scheme         WeightScheme... Becke
Basis function cutoff            BFCut       ... 1.0000e-11
Integration weight cutoff        WCut        ... 1.0000e-14
Angular grids for H and He will be reduced by one unit
Partially contracted basis set               ... on
Rotationally invariant grid construction     ... off

Total number of grid points                  ...    30514
Total number of batches                      ...      485
Average number of points per batch           ...       62
Average number of grid points per atom       ...     2347
UseSFitting                                  ... on

GRIDX 3
-------
General Integration Accuracy     IntAcc      ... 4.338
Radial Grid Type                 RadialGrid  ... OptM3 with GC (2021)
Angular Grid (max. ang.)         AngularGrid ... 3 (Lebedev-194)
Angular grid pruning method      GridPruning ... 4 (adaptive)
Weight generation scheme         WeightScheme... Becke
Basis function cutoff            BFCut       ... 1.0000e-11
Integration weight cutoff        WCut        ... 1.0000e-14
Angular grids for H and He will be reduced by one unit
Partially contracted basis set               ... on
Rotationally invariant grid construction     ... off

Total number of grid points                  ...    64785
Total number of batches                      ...     1018
Average number of points per batch           ...       63
Average number of grid points per atom       ...     4983
UseSFitting                                  ... on

Time for X-Grid setup             =    1.930 sec

--------------
SCF ITERATIONS
--------------
ITER       Energy         Delta-E        Max-DP      RMS-DP      [F,P]     Damp
               ***  Starting incremental Fock matrix formation  ***
  0   -767.6403004624   0.00000000000020.93528406  0.11457582  0.8952161 0.7000
  1   -769.3619899636  -1.72168950117116.10238735  0.07010306  0.2650149 0.7000
                               ***Turning on DIIS***
  2   -769.4543978269  -0.092407863322 9.40771630  0.04701915  0.1490291 0.7000
  3   -769.8109731127  -0.356575285733 7.32389418  0.03603947  0.1119664 0.7000
  4   -770.0097671054  -0.19879399272117.81191154  0.08721816  0.0822712 0.0000
  5   -770.4399752164  -0.430208111021 0.11198406  0.00083213  0.1165555 0.7000
  6   -770.4509438878  -0.010968671420 0.16240417  0.00125583  0.1039768 0.7000
  7   -770.4629767107  -0.012032822890 0.67682957  0.00548811  0.0883303 0.0000
  8   -770.4949482975  -0.031971586759 0.28346739  0.00274222  0.0265060 0.0000
  9   -770.4968078774  -0.001859579901 0.26052361  0.00276955  0.0160337 0.0000
 10   -770.4988382015  -0.002030324094 0.21879665  0.00231431  0.0035417 0.0000
 11   -770.4991011301  -0.000262928579 0.16786915  0.00184684  0.0022934 0.0000
 12   -770.4991946467  -0.000093516643 0.12551755  0.00143037  0.0019403 0.0000
 13   -770.4992480276  -0.000053380869 0.10267866  0.00112762  0.0017842 0.0000
 14   -770.4992871684  -0.000039140784 3.78130248  0.03051854  0.0007466 0.0000
               *** Restarting incremental Fock matrix formation ***
                                   *** Resetting DIIS ***
 15   -770.4475982684   0.051688899929 0.14844163  0.00101931  0.2272036 0.7000
 16   -770.5330627292  -0.085464460727 0.11123674  0.00154985  0.0476723 0.0000
 17   -770.5522203022  -0.019157573076 0.02844232  0.00016456  0.1286796 0.7000
 18   -770.5687894862  -0.016569183931 0.02526517  0.00015864  0.1018884 0.7000
 19   -770.5821438817  -0.013354395500 0.05979596  0.00044499  0.0745101 0.0000

 WARNING: the maximum gradient error descreased on average only by a factor   0.7
          during the last 20 iterations

                      *** Initiating the TRAH-SCF procedure ***


TRAH GRIDX
----------

General Integration Accuracy     IntAcc      ... 3.067
Radial Grid Type                 RadialGrid  ... OptM3 with GC (2021)
Angular Grid (max. ang.)         AngularGrid ... 1 (Lebedev-50)
Angular grid pruning method      GridPruning ... 4 (adaptive)
Weight generation scheme         WeightScheme... Becke
Basis function cutoff            BFCut       ... 1.0000e-11
Integration weight cutoff        WCut        ... 1.0000e-14
Angular grids for H and He will be reduced by one unit
Partially contracted basis set               ... on
Rotationally invariant grid construction     ... off

Total number of grid points                  ...     6396
Total number of batches                      ...      105
Average number of points per batch           ...       60
Average number of grid points per atom       ...      492


TRAH GRID
---------

General Integration Accuracy     IntAcc      ... 3.467
Radial Grid Type                 RadialGrid  ... OptM3 with GC (2021)
Angular Grid (max. ang.)         AngularGrid ... 1 (Lebedev-50)
Angular grid pruning method      GridPruning ... 4 (adaptive)
Weight generation scheme         WeightScheme... Becke
Basis function cutoff            BFCut       ... 1.0000e-11
Integration weight cutoff        WCut        ... 1.0000e-14
Angular grids for H and He will be reduced by one unit
Partially contracted basis set               ... off
Rotationally invariant grid construction     ... off

Total number of grid points                  ...    17954
Total number of batches                      ...      288
Average number of points per batch           ...       62
Average number of grid points per atom       ...     1381

 --------------------------------------------------------------------------------------------
   Iter.        energy            ||Error||_2        Shift      TRadius  Mac/Mic        Rej.
 --------------------------------------------------------------------------------------------
    0       -770.601878795610     5.471461e-02                     0.400 (TRAH MAcro)   No
WARNING : small    HOMO - LUMO gap : 0.018236
    0     dE    -1.669669e-04     6.679015e-02    -3.3392e-04      0.006 (TRAH MIcro)
    0     dE    -2.501775e-04     3.280143e-02    -5.0026e-04      0.014 (TRAH MIcro)
    0     dE    -2.974739e-04     8.703298e-03    -5.9475e-04      0.018 (TRAH MIcro)
    0     dE    -4.697757e-04     2.489402e-02    -5.0102e-02      0.077 (TRAH MIcro)
    0     dE    -2.098544e-03     4.314119e-02    -5.8792e-02      0.242 (TRAH MIcro)
    0     dE    -5.525112e-03     2.762108e-02    -6.3947e-02      0.400 (TRAH MIcro)
    0     dE    -5.560427e-03     1.463217e-02    -6.4429e-02      0.400 (TRAH MIcro)
    0     dE    -5.573034e-03     4.518200e-03    -6.4604e-02      0.400 (TRAH MIcro)
    1       -770.603975245336     1.637340e-01                     0.400 (TRAH MAcro)   No
    1     dE    -1.262953e-03     2.220882e-01    -2.5253e-03      0.015 (TRAH MIcro)
    1     dE    -2.454877e-03     5.463510e-02    -4.8945e-03      0.056 (TRAH MIcro)
    1     dE    -3.399347e-03     9.778539e-02    -6.6011e-03      0.173 (TRAH MIcro)
    1     dE    -4.173443e-03     4.935539e-02    -7.7322e-03      0.282 (TRAH MIcro)
    1     dE    -4.446712e-03     2.776736e-02    -8.0703e-03      0.319 (TRAH MIcro)
    1     dE    -4.758508e-03     1.594932e-02    -8.4178e-03      0.361 (TRAH MIcro)
    1     dE    -4.786619e-03     5.010566e-03    -8.4447e-03      0.366 (TRAH MIcro)
    2       -770.608047363935     5.961993e-02                     0.480 (TRAH MAcro)   No
    2     dE    -1.743342e-04     7.652769e-02    -3.4866e-04      0.006 (TRAH MIcro)
    2     dE    -4.591746e-04     2.381922e-02    -9.1742e-04      0.032 (TRAH MIcro)
    2     dE    -5.245053e-04     2.099122e-02    -1.0469e-03      0.045 (TRAH MIcro)
    2     dE    -5.668460e-04     1.173976e-02    -1.1294e-03      0.061 (TRAH MIcro)
    2     dE    -5.969261e-04     1.246957e-02    -1.1865e-03      0.079 (TRAH MIcro)
    2     dE    -6.259434e-04     1.133840e-02    -1.2387e-03      0.103 (TRAH MIcro)
    2     dE    -6.370276e-04     7.052812e-03    -1.2580e-03      0.113 (TRAH MIcro)
    2     dE    -6.407546e-04     3.634272e-03    -1.2644e-03      0.116 (TRAH MIcro)
    3       -770.608676980229     5.276266e-03                     0.576 (TRAH MAcro)   No
    3     dE    -1.627069e-07     2.104336e-02    -3.2545e-07      0.000 (TRAH MIcro)
    3     dE    -1.047208e-05     7.716692e-03    -2.0943e-05      0.007 (TRAH MIcro)
    3     dE    -2.152548e-05     8.453678e-03    -4.3041e-05      0.016 (TRAH MIcro)
    3     dE    -2.477751e-05     6.872961e-03    -4.9535e-05      0.020 (TRAH MIcro)
    3     dE    -2.946385e-05     1.261028e-02    -5.8876e-05      0.030 (TRAH MIcro)
    3     dE    -3.363078e-05     9.193587e-03    -6.7151e-05      0.041 (TRAH MIcro)
    3     dE    -4.016148e-05     5.814378e-03    -8.0033e-05      0.060 (TRAH MIcro)
    3     dE    -4.765205e-05     6.768944e-03    -9.4610e-05      0.086 (TRAH MIcro)
    3     dE    -5.171130e-05     6.343696e-03    -1.0240e-04      0.100 (TRAH MIcro)
    3     dE    -5.933955e-05     5.205237e-03    -1.1674e-04      0.129 (TRAH MIcro)
    3     dE    -6.954372e-05     1.088257e-02    -1.3522e-04      0.169 (TRAH MIcro)
    3     dE    -1.057220e-04     2.857587e-02    -1.9310e-04      0.308 (TRAH MIcro)
    3     dE    -2.793010e-04     2.409817e-02    -8.2915e-04      0.576 (TRAH MIcro)
    3     dE    -3.018146e-04     1.001513e-02    -1.0602e-03      0.560 (TRAH MIcro)
 ---------------------------------
          TRAH Step control 
 ---------------------------------
  predicted energy change = -0.000302
  actual energy  change   = 0.001442
  energy change ratio     = -4.778411
  old trust radius        = 0.576000
  new trust radius        = 0.403200
  reject step?            =  1
    4       -770.608676980229     5.961993e-02                     0.403 (TRAH MAcro)  Yes
    5       -770.608676980229     5.276266e-03                     0.403 (TRAH MAcro)   No
    5     dE    -1.576470e-07     2.108348e-02    -3.1533e-07      0.000 (TRAH MIcro)
    5     dE    -1.046304e-05     7.802925e-03    -2.0925e-05      0.007 (TRAH MIcro)
    5     dE    -2.152721e-05     8.472939e-03    -4.3044e-05      0.016 (TRAH MIcro)
    5     dE    -2.477755e-05     6.897383e-03    -4.9535e-05      0.020 (TRAH MIcro)
    5     dE    -2.946547e-05     1.257970e-02    -5.8879e-05      0.030 (TRAH MIcro)
    5     dE    -3.363323e-05     9.211034e-03    -6.7156e-05      0.041 (TRAH MIcro)
    5     dE    -4.016870e-05     5.825671e-03    -8.0048e-05      0.060 (TRAH MIcro)
    5     dE    -4.764090e-05     6.782208e-03    -9.4588e-05      0.086 (TRAH MIcro)
    5     dE    -5.172139e-05     6.350206e-03    -1.0242e-04      0.100 (TRAH MIcro)
    5     dE    -5.939201e-05     5.212390e-03    -1.1684e-04      0.129 (TRAH MIcro)
    5     dE    -6.959632e-05     1.100815e-02    -1.3531e-04      0.169 (TRAH MIcro)
    5     dE    -1.072349e-04     2.937590e-02    -1.9530e-04      0.313 (TRAH MIcro)
    5     dE    -2.043754e-04     1.463268e-02    -1.2015e-03      0.403 (TRAH MIcro)
    5     dE    -2.161450e-04     6.967126e-03    -1.3642e-03      0.403 (TRAH MIcro)
 ---------------------------------
          TRAH Step control 
 ---------------------------------
  predicted energy change = -0.000216
  actual energy  change   = 0.000326
  energy change ratio     = -1.506023
  old trust radius        = 0.403200
  new trust radius        = 0.282240
  reject step?            =  1
    6       -770.608676980229     5.961993e-02                     0.282 (TRAH MAcro)  Yes
    7       -770.608676980229     5.276266e-03                     0.282 (TRAH MAcro)   No
    7     dE    -1.569130e-07     2.110652e-02    -3.1388e-07      0.000 (TRAH MIcro)
    7     dE    -1.045822e-05     7.735538e-03    -2.0915e-05      0.007 (TRAH MIcro)
    7     dE    -2.151748e-05     8.456474e-03    -4.3025e-05      0.016 (TRAH MIcro)
    7     dE    -2.475451e-05     6.898625e-03    -4.9489e-05      0.020 (TRAH MIcro)
    7     dE    -2.943283e-05     1.255955e-02    -5.8814e-05      0.030 (TRAH MIcro)
    7     dE    -3.361126e-05     9.277054e-03    -6.7112e-05      0.040 (TRAH MIcro)
    7     dE    -4.016228e-05     5.821305e-03    -8.0035e-05      0.060 (TRAH MIcro)
    7     dE    -4.761659e-05     6.760581e-03    -9.4541e-05      0.086 (TRAH MIcro)
    7     dE    -5.169170e-05     6.328708e-03    -1.0236e-04      0.100 (TRAH MIcro)
    7     dE    -5.931926e-05     5.193291e-03    -1.1670e-04      0.129 (TRAH MIcro)
    7     dE    -6.940917e-05     1.080546e-02    -1.3498e-04      0.169 (TRAH MIcro)
    7     dE    -1.035653e-04     2.588377e-02    -3.3118e-04      0.282 (TRAH MIcro)
    7     dE    -1.454912e-04     9.937409e-03    -1.5756e-03      0.282 (TRAH MIcro)
    7     dE    -1.509636e-04     4.603542e-03    -1.7378e-03      0.282 (TRAH MIcro)
    8       -770.608689084777     3.138137e-02                     0.198 (TRAH MAcro)   No
    8     dE    -4.372432e-05     3.916377e-02    -8.7448e-05      0.003 (TRAH MIcro)
    8     dE    -9.414218e-05     8.720429e-03    -1.8825e-04      0.013 (TRAH MIcro)
    8     dE    -9.942971e-05     4.488522e-03    -1.9882e-04      0.014 (TRAH MIcro)
    8     dE    -1.006731e-04     1.526867e-03    -2.0130e-04      0.015 (TRAH MIcro)
    9       -770.608789089947     1.499648e-03                     0.237 (TRAH MAcro)   No
    9     dE    -1.318654e-08     4.418156e-03    -2.6524e-08      0.000 (TRAH MIcro)
    9     dE    -1.195041e-07     1.553182e-03    -2.3901e-07      0.000 (TRAH MIcro)
    9     dE    -1.887577e-07     9.238091e-04    -3.7752e-07      0.001 (TRAH MIcro)
    9     dE    -2.208952e-07     5.482665e-04    -4.4179e-07      0.001 (TRAH MIcro)
    9     dE    -2.332242e-07     2.996164e-04    -4.6645e-07      0.002 (TRAH MIcro)
    9     dE    -2.530362e-07     4.713723e-04    -5.0607e-07      0.002 (TRAH MIcro)
    9     dE    -2.747611e-07     7.629448e-04    -5.4952e-07      0.003 (TRAH MIcro)
    9     dE    -3.158797e-07     5.698730e-04    -6.3174e-07      0.005 (TRAH MIcro)
    9     dE    -3.444147e-07     4.466225e-04    -6.8880e-07      0.007 (TRAH MIcro)
    9     dE    -3.717812e-07     2.557508e-04    -7.4351e-07      0.009 (TRAH MIcro)
    9     dE    -3.737123e-07     1.322599e-04    -7.4737e-07      0.009 (TRAH MIcro)
   10       -770.608789461160     1.411892e-04                           (NR   MAcro)
   10     dE    -6.614155e-10     8.245074e-05                           (NR   MIcro)
   10     dE    -9.829598e-10     1.898020e-05                           (NR   MIcro)
   10     dE    -1.010617e-09     1.227851e-05                           (NR   MIcro)
   10     dE    -1.027266e-09     9.310784e-06                           (NR   MIcro)
   10     dE    -1.039184e-09     1.086798e-05                           (NR   MIcro)
   10     dE    -1.079733e-09     1.786832e-05                           (NR   MIcro)
   10     dE    -1.116687e-09     1.937636e-05                           (NR   MIcro)
   10     dE    -1.148678e-09     1.125814e-05                           (NR   MIcro)
   10     dE    -1.160333e-09     7.529633e-06                           (NR   MIcro)
   10     dE    -1.166371e-09     4.988988e-06                           (NR   MIcro)
   10     dE    -1.169328e-09     2.393647e-06                           (NR   MIcro)
   10     dE    -1.169696e-09     1.441037e-06                           (NR   MIcro)
   10     dE    -1.169854e-09     5.456370e-07                           (NR   MIcro)
   11       -770.608789462507     1.178689e-06                           (NR   MAcro)

               *****************************************************
               *                     SUCCESS                       *
               *           SCF CONVERGED AFTER 123 CYCLES          *
               *****************************************************

Old exchange energy                            =    -17.717976507 Eh
New exchange energy                            =    -17.717937101 Eh
Exchange energy change after final integration =      0.000039406 Eh
Total energy after final integration           =   -770.608750056 Eh
Final COS-X integration done in                =    11.310 sec

----------------
TOTAL SCF ENERGY
----------------

Total Energy       :         -770.60875006 Eh          -20969.33015 eV

Components:
Nuclear Repulsion  :          794.19567453 Eh           21611.16299 eV
Electronic Energy  :        -1564.80442459 Eh          -42580.49314 eV
One Electron Energy:        -2661.78974557 Eh          -72430.98130 eV
Two Electron Energy:         1096.98532098 Eh           29850.48815 eV
Max COSX asymmetry :            0.00000105 Eh               0.00003 eV

Virial components:
Potential Energy   :        -1478.96667960 Eh          -40244.72935 eV
Kinetic Energy     :          708.35792955 Eh           19275.39921 eV
Virial Ratio       :            2.08788046


DFT components:
N(Alpha)           :       50.000110635611 electrons
N(Beta)            :       50.000110635611 electrons
N(Total)           :      100.000221271221 electrons
E(X)               :      -70.995153379410 Eh       
E(C)               :       -4.155600180625 Eh       
E(XC)              :      -75.150753560035 Eh       
DFET-embed. en.    :        0.000000000000 Eh       

---------------
SCF CONVERGENCE
---------------

  Last Energy change         ...   -1.3471e-09  Tolerance :   1.0000e-08
  Last Orbital Gradient      ...    1.1787e-06  Tolerance :   1.0000e-05
  Last Orbital Rotation      ...    2.5377e-04

             **** THE GBW FILE WAS UPDATED (OsCO6.gbw) ****
             **** DENSITY OsCO6.scfp WAS UPDATED ****
             **** ENERGY FILE WAS UPDATED (OsCO6.en.tmp) ****
             **** THE GBW FILE WAS UPDATED (OsCO6.gbw) ****
             **** DENSITY OsCO6.scfp WAS UPDATED ****
----------------
ORBITAL ENERGIES
----------------

  NO   OCC          E(Eh)            E(eV) 
   0   2.0000     -19.225622      -523.1558 
   1   2.0000     -19.225562      -523.1541 
   2   2.0000     -19.225462      -523.1514 
   3   2.0000     -19.225381      -523.1492 
   4   2.0000     -19.225281      -523.1465 
   5   2.0000     -19.225225      -523.1450 
   6   2.0000     -10.303682      -280.3774 
   7   2.0000     -10.303652      -280.3766 
   8   2.0000     -10.303608      -280.3754 
   9   2.0000     -10.303542      -280.3736 
  10   2.0000     -10.303506      -280.3726 
  11   2.0000     -10.303468      -280.3716 
  12   2.0000      -3.546276       -96.4991 
  13   2.0000      -1.971535       -53.6482 
  14   2.0000      -1.971525       -53.6479 
  15   2.0000      -1.971186       -53.6387 
  16   2.0000      -1.166253       -31.7353 
  17   2.0000      -1.165777       -31.7224 
  18   2.0000      -1.165630       -31.7184 
  19   2.0000      -1.165516       -31.7153 
  20   2.0000      -1.165485       -31.7145 
  21   2.0000      -1.165349       -31.7108 
  22   2.0000      -0.633276       -17.2323 
  23   2.0000      -0.592932       -16.1345 
  24   2.0000      -0.592810       -16.1312 
  25   2.0000      -0.582100       -15.8397 
  26   2.0000      -0.581596       -15.8260 
  27   2.0000      -0.581481       -15.8229 
  28   2.0000      -0.529790       -14.4163 
  29   2.0000      -0.511505       -13.9188 
  30   2.0000      -0.511403       -13.9160 
  31   2.0000      -0.499067       -13.5803 
  32   2.0000      -0.499005       -13.5786 
  33   2.0000      -0.497891       -13.5483 
  34   2.0000      -0.491083       -13.3630 
  35   2.0000      -0.490998       -13.3607 
  36   2.0000      -0.490608       -13.3501 
  37   2.0000      -0.481911       -13.1135 
  38   2.0000      -0.480701       -13.0805 
  39   2.0000      -0.480606       -13.0780 
  40   2.0000      -0.477025       -12.9805 
  41   2.0000      -0.475853       -12.9486 
  42   2.0000      -0.475781       -12.9467 
  43   2.0000      -0.440409       -11.9841 
  44   2.0000      -0.440303       -11.9812 
  45   2.0000      -0.440275       -11.9805 
  46   2.0000      -0.328553        -8.9404 
  47   2.0000      -0.328522        -8.9395 
  48   2.0000      -0.327914        -8.9230 
  49   2.0000      -0.109078        -2.9682 
  50   0.0000      -0.073826        -2.0089 
  51   0.0000      -0.073820        -2.0087 
  52   0.0000      -0.050357        -1.3703 
  53   0.0000      -0.050280        -1.3682 
  54   0.0000      -0.047055        -1.2804 
  55   0.0000      -0.029851        -0.8123 
  56   0.0000      -0.029802        -0.8109 
  57   0.0000      -0.027463        -0.7473 
  58   0.0000      -0.025248        -0.6870 
  59   0.0000      -0.025163        -0.6847 
  60   0.0000      -0.010550        -0.2871 
  61   0.0000      -0.006925        -0.1884 
  62   0.0000      -0.006827        -0.1858 
  63   0.0000      -0.002535        -0.0690 
  64   0.0000       0.012235         0.3329 
  65   0.0000       0.012256         0.3335 
  66   0.0000       0.013734         0.3737 
  67   0.0000       0.051080         1.3900 
  68   0.0000       0.051110         1.3908 
  69   0.0000       0.054585         1.4853 
  70   0.0000       0.054603         1.4858 
  71   0.0000       0.055200         1.5021 
  72   0.0000       0.076929         2.0934 
  73   0.0000       0.077762         2.1160 
  74   0.0000       0.077767         2.1161 
  75   0.0000       0.078178         2.1273 
  76   0.0000       0.090636         2.4663 
  77   0.0000       0.091581         2.4920 
  78   0.0000       0.091592         2.4923 
  79   0.0000       0.104958         2.8560 
  80   0.0000       0.104963         2.8562 
  81   0.0000       0.106095         2.8870 
  82   0.0000       0.123126         3.3504 
  83   0.0000       0.130237         3.5439 
  84   0.0000       0.130342         3.5468 
  85   0.0000       0.130381         3.5478 
  86   0.0000       0.131230         3.5709 
  87   0.0000       0.131241         3.5712 
  88   0.0000       0.165412         4.5011 
  89   0.0000       0.166292         4.5250 
  90   0.0000       0.166317         4.5257 
  91   0.0000       0.171873         4.6769 
  92   0.0000       0.206140         5.6094 
  93   0.0000       0.206147         5.6096 
  94   0.0000       0.207159         5.6371 
  95   0.0000       0.217436         5.9167 
  96   0.0000       0.217460         5.9174 
  97   0.0000       0.233057         6.3418 
  98   0.0000       0.233249         6.3470 
  99   0.0000       0.233265         6.3475 
 100   0.0000       0.236498         6.4354 
 101   0.0000       0.237140         6.4529 
 102   0.0000       0.237156         6.4533 
 103   0.0000       0.243272         6.6198 
 104   0.0000       0.269268         7.3272 
 105   0.0000       0.270487         7.3603 
 106   0.0000       0.271257         7.3813 
 107   0.0000       0.271316         7.3829 
 108   0.0000       0.272301         7.4097 
 109   0.0000       0.272302         7.4097 
 110   0.0000       0.276808         7.5323 
 111   0.0000       0.277014         7.5379 
 112   0.0000       0.277036         7.5385 
 113   0.0000       0.308634         8.3984 
 114   0.0000       0.308683         8.3997 
 115   0.0000       0.339449         9.2369 
 116   0.0000       0.340233         9.2582 
 117   0.0000       0.340237         9.2583 
 118   0.0000       0.342277         9.3138 
 119   0.0000       0.342509         9.3201 
 120   0.0000       0.342565         9.3217 
 121   0.0000       0.343076         9.3356 
 122   0.0000       0.344435         9.3726 
 123   0.0000       0.344477         9.3737 
 124   0.0000       0.351537         9.5658 
 125   0.0000       0.351537         9.5658 
 126   0.0000       0.379204        10.3187 
 127   0.0000       0.386945        10.5293 
 128   0.0000       0.387087        10.5332 
 129   0.0000       0.387165        10.5353 
 130   0.0000       0.408767        11.1231 
 131   0.0000       0.409706        11.1487 
 132   0.0000       0.409781        11.1507 
 133   0.0000       0.436373        11.8743 
 134   0.0000       0.436382        11.8746 
 135   0.0000       0.436574        11.8798 
 136   0.0000       0.443174        12.0594 
 137   0.0000       0.482583        13.1317 
 138   0.0000       0.486657        13.2426 
 139   0.0000       0.486736        13.2448 
 140   0.0000       0.486783        13.2460 
 141   0.0000       0.488162        13.2836 
 142   0.0000       0.488254        13.2861 
 143   0.0000       0.488515        13.2932 
 144   0.0000       0.490493        13.3470 
 145   0.0000       0.491942        13.3864 
 146   0.0000       0.492052        13.3894 
 147   0.0000       0.492966        13.4143 
 148   0.0000       0.532281        14.4841 
 149   0.0000       0.532318        14.4851 
 150   0.0000       0.540580        14.7099 
 151   0.0000       0.540659        14.7121 
 152   0.0000       0.540736        14.7142 
 153   0.0000       0.548767        14.9327 
 154   0.0000       0.549309        14.9475 
 155   0.0000       0.549313        14.9476 
 156   0.0000       0.554411        15.0863 
 157   0.0000       0.554892        15.0994 
 158   0.0000       0.555035        15.1033 
 159   0.0000       0.567059        15.4305 
 160   0.0000       0.568205        15.4616 
 161   0.0000       0.568257        15.4631 
 162   0.0000       0.569593        15.4994 
 163   0.0000       0.569609        15.4999 
 164   0.0000       0.587018        15.9736 
 165   0.0000       0.617546        16.8043 
 166   0.0000       0.617558        16.8046 
 167   0.0000       0.657328        17.8868 
 168   0.0000       0.657405        17.8889 
 169   0.0000       0.657430        17.8896 
 170   0.0000       0.672326        18.2949 
 171   0.0000       0.672366        18.2960 
 172   0.0000       0.676723        18.4146 
 173   0.0000       0.676902        18.4194 
 174   0.0000       0.676974        18.4214 
 175   0.0000       0.685633        18.6570 
 176   0.0000       0.685666        18.6579 
 177   0.0000       0.705891        19.2083 
 178   0.0000       0.707485        19.2517 
 179   0.0000       0.707699        19.2575 
 180   0.0000       0.733218        19.9519 
 181   0.0000       0.733272        19.9534 
 182   0.0000       0.733720        19.9655 
 183   0.0000       0.739431        20.1210 
 184   0.0000       0.740366        20.1464 
 185   0.0000       0.742036        20.1918 
 186   0.0000       0.742089        20.1933 
 187   0.0000       0.770480        20.9658 
 188   0.0000       0.778037        21.1715 
 189   0.0000       0.778137        21.1742 
 190   0.0000       0.778586        21.1864 
 191   0.0000       0.821000        22.3406 
 192   0.0000       0.821076        22.3426 
 193   0.0000       0.832603        22.6563 
 194   0.0000       0.832642        22.6573 
 195   0.0000       0.833425        22.6787 
 196   0.0000       0.834931        22.7196 
 197   0.0000       0.844692        22.9852 
 198   0.0000       0.844758        22.9870 
 199   0.0000       0.850778        23.1508 
 200   0.0000       0.850798        23.1514 
 201   0.0000       0.854409        23.2497 
 202   0.0000       0.854518        23.2526 
 203   0.0000       0.854651        23.2562 
 204   0.0000       0.878050        23.8929 
 205   0.0000       0.879251        23.9256 
 206   0.0000       0.879347        23.9282 
 207   0.0000       0.885167        24.0866 
 208   0.0000       0.892800        24.2943 
 209   0.0000       0.892815        24.2947 
 210   0.0000       0.894327        24.3359 
 211   0.0000       0.899197        24.4684 
 212   0.0000       0.929135        25.2830 
 213   0.0000       0.934461        25.4280 
 214   0.0000       0.934960        25.4415 
 215   0.0000       0.935008        25.4429 
 216   0.0000       0.962085        26.1797 
 217   0.0000       0.963532        26.2190 
 218   0.0000       0.963554        26.2196 
 219   0.0000       0.976286        26.5661 
 220   0.0000       0.976362        26.5682 
 221   0.0000       0.977536        26.6001 
 222   0.0000       1.033367        28.1193 
 223   0.0000       1.033392        28.1200 
 224   0.0000       1.033463        28.1219 
 225   0.0000       1.079709        29.3804 
 226   0.0000       1.079742        29.3813 
 227   0.0000       1.128019        30.6950 
 228   0.0000       1.130865        30.7724 
 229   0.0000       1.130893        30.7732 
 230   0.0000       1.157473        31.4964 
 231   0.0000       1.157669        31.5018 
 232   0.0000       1.157875        31.5074 
 233   0.0000       1.158017        31.5112 
 234   0.0000       1.158040        31.5119 
 235   0.0000       1.189542        32.3691 
 236   0.0000       1.189912        32.3792 
 237   0.0000       1.189930        32.3797 
 238   0.0000       1.199279        32.6340 
 239   0.0000       1.199477        32.6394 
 240   0.0000       1.202132        32.7117 
 241   0.0000       1.241427        33.7809 
 242   0.0000       1.294116        35.2147 
 243   0.0000       1.294490        35.2249 
 244   0.0000       1.294546        35.2264 
 245   0.0000       1.315063        35.7847 
 246   0.0000       1.328399        36.1476 
 247   0.0000       1.328449        36.1489 
 248   0.0000       1.481612        40.3167 
 249   0.0000       1.481636        40.3174 
 250   0.0000       1.484648        40.3993 
 251   0.0000       1.506831        41.0029 
 252   0.0000       1.508838        41.0576 
 253   0.0000       1.508909        41.0595 
 254   0.0000       1.655547        45.0497 
 255   0.0000       1.655603        45.0512 
 256   0.0000       1.693172        46.0736 
 257   0.0000       1.693224        46.0750 
 258   0.0000       1.695801        46.1451 
 259   0.0000       1.696243        46.1571 
 260   0.0000       1.697574        46.1933 
 261   0.0000       1.697581        46.1935 
 262   0.0000       1.699474        46.2451 
 263   0.0000       1.699619        46.2490 
 264   0.0000       1.700760        46.2800 
 265   0.0000       1.726779        46.9880 
 266   0.0000       1.726814        46.9890 
 267   0.0000       1.736152        47.2431 
 268   0.0000       1.736216        47.2448 
 269   0.0000       1.737463        47.2788 
 270   0.0000       1.762161        47.9508 
 271   0.0000       1.762825        47.9689 
 272   0.0000       1.762862        47.9699 
 273   0.0000       1.769027        48.1377 
 274   0.0000       1.769152        48.1411 
 275   0.0000       1.777388        48.3652 
 276   0.0000       1.815485        49.4018 
 277   0.0000       1.861856        50.6637 
 278   0.0000       1.865161        50.7536 
 279   0.0000       1.867326        50.8125 
 280   0.0000       1.869031        50.8589 
 281   0.0000       1.869125        50.8615 
 282   0.0000       1.878119        51.1062 
 283   0.0000       1.878626        51.1200 
 284   0.0000       1.881523        51.1988 
 285   0.0000       1.882234        51.2182 
 286   0.0000       1.882841        51.2347 
 287   0.0000       1.882974        51.2383 
 288   0.0000       1.976103        53.7725 
 289   0.0000       1.976190        53.7749 
 290   0.0000       2.068431        56.2849 
 291   0.0000       2.068484        56.2863 
 292   0.0000       2.069251        56.3072 
 293   0.0000       2.069601        56.3167 
 294   0.0000       2.071143        56.3587 
 295   0.0000       2.131874        58.0112 
 296   0.0000       2.134328        58.0780 
 297   0.0000       2.134347        58.0785 
 298   0.0000       2.195659        59.7469 
 299   0.0000       2.197819        59.8057 
 300   0.0000       2.198006        59.8108 
 301   0.0000       2.225288        60.5532 
 302   0.0000       2.225319        60.5540 
 303   0.0000       2.228177        60.6318 
 304   0.0000       2.238041        60.9002 
 305   0.0000       2.238178        60.9039 
 306   0.0000       2.239207        60.9319 
 307   0.0000       2.353886        64.0525 
 308   0.0000       2.425637        66.0049 
 309   0.0000       2.425784        66.0089 
 310   0.0000       2.426572        66.0304 
 311   0.0000       2.438968        66.3677 
 312   0.0000       2.439047        66.3699 
 313   0.0000       2.445256        66.5388 
 314   0.0000       2.641532        71.8797 
 315   0.0000       2.641546        71.8801 
 316   0.0000       2.642331        71.9015 
 317   0.0000       2.652406        72.1756 
 318   0.0000       2.652641        72.1820 
 319   0.0000       2.652702        72.1837 
 320   0.0000       2.656271        72.2808 
 321   0.0000       2.656534        72.2880 
 322   0.0000       2.656708        72.2927 
 323   0.0000       2.670520        72.6685 
 324   0.0000       2.671473        72.6945 
 325   0.0000       2.671585        72.6975 
 326   0.0000       2.693556        73.2954 
 327   0.0000       2.747836        74.7724 
 328   0.0000       2.747938        74.7752 
 329   0.0000       2.748426        74.7885 
 330   0.0000       2.791128        75.9505 
 331   0.0000       2.793333        76.0105 
 332   0.0000       2.793462        76.0140 
 333   0.0000       2.807473        76.3952 
 334   0.0000       2.807572        76.3979 
 335   0.0000       2.811281        76.4989 
 336   0.0000       2.811309        76.4996 
 337   0.0000       2.815499        76.6136 
 338   0.0000       2.816303        76.6355 
 339   0.0000       2.816357        76.6370 
 340   0.0000       2.855782        77.7098 
 341   0.0000       2.874095        78.2081 
 342   0.0000       2.941413        80.0399 
 343   0.0000       2.943474        80.0960 
 344   0.0000       2.943553        80.0981 
 345   0.0000       2.958447        80.5034 
 346   0.0000       2.959017        80.5189 
 347   0.0000       2.959063        80.5202 
 348   0.0000       2.985257        81.2330 
 349   0.0000       2.985402        81.2369 
 350   0.0000       2.986318        81.2618 
 351   0.0000       2.992648        81.4341 
 352   0.0000       3.064468        83.3884 
 353   0.0000       3.064566        83.3911 
 354   0.0000       3.065127        83.4064 
 355   0.0000       3.065177        83.4077 
 356   0.0000       3.066627        83.4472 
 357   0.0000       3.105534        84.5059 
 358   0.0000       3.105587        84.5073 
 359   0.0000       3.106711        84.5379 
 360   0.0000       3.150629        85.7330 
 361   0.0000       3.152024        85.7709 
 362   0.0000       3.152025        85.7710 
 363   0.0000       3.166939        86.1768 
 364   0.0000       3.204161        87.1896 
 365   0.0000       3.204201        87.1907 
 366   0.0000       3.207188        87.2720 
 367   0.0000       3.207384        87.2773 
 368   0.0000       3.207583        87.2828 
 369   0.0000       3.250752        88.4574 
 370   0.0000       3.250973        88.4635 
 371   0.0000       3.251216        88.4701 
 372   0.0000       3.263102        88.7935 
 373   0.0000       3.263386        88.8013 
 374   0.0000       3.267097        88.9022 
 375   0.0000       3.313338        90.1605 
 376   0.0000       3.316422        90.2444 
 377   0.0000       3.316458        90.2454 
 378   0.0000       3.377040        91.8939 
 379   0.0000       3.377081        91.8950 
 380   0.0000       3.378134        91.9237 
 381   0.0000       3.406742        92.7022 
 382   0.0000       3.406826        92.7044 
 383   0.0000       3.477034        94.6149 
 384   0.0000       3.481636        94.7401 
 385   0.0000       3.481659        94.7408 
 386   0.0000       3.505961        95.4020 
 387   0.0000       3.506274        95.4106 
 388   0.0000       3.506340        95.4124 
 389   0.0000       3.573084        97.2285 
 390   0.0000       3.606706        98.1435 
 391   0.0000       3.609851        98.2290 
 392   0.0000       3.609883        98.2299 
 393   0.0000       3.623607        98.6034 
 394   0.0000       3.623646        98.6044 
 395   0.0000       3.748020       101.9888 
 396   0.0000       3.748072       101.9902 
 397   0.0000       3.752235       102.1035 
 398   0.0000       3.780355       102.8687 
 399   0.0000       3.783858       102.9640 
 400   0.0000       3.784149       102.9719 
 401   0.0000       3.836812       104.4050 
 402   0.0000       3.836941       104.4085 
 403   0.0000       3.840676       104.5101 
 404   0.0000       4.212220       114.6203 
 405   0.0000       4.315677       117.4355 
 406   0.0000       4.315784       117.4385 
 407   0.0000       4.385094       119.3245 
 408   0.0000       4.385408       119.3330 
 409   0.0000       4.385469       119.3347 
 410   0.0000       4.399419       119.7143 
 411   0.0000       4.651412       126.5714 
 412   0.0000       4.651540       126.5748 
 413   0.0000       4.651663       126.5782 
 414   0.0000       4.724907       128.5713 
 415   0.0000       4.725027       128.5745 
 416   0.0000       5.077610       138.1688 
 417   0.0000       5.077616       138.1690 
 418   0.0000       5.077653       138.1700 
 419   0.0000       5.077705       138.1714 
 420   0.0000       5.077761       138.1729 
 421   0.0000       5.077777       138.1733 
 422   0.0000       5.077846       138.1752 
 423   0.0000       5.077961       138.1784 
 424   0.0000       5.077978       138.1788 
 425   0.0000       5.078937       138.2049 
 426   0.0000       5.079019       138.2071 
 427   0.0000       5.079080       138.2088 
 428   0.0000       5.494844       149.5223 
 429   0.0000       5.494999       149.5265 
 430   0.0000       5.502859       149.7404 
 431   0.0000       5.502989       149.7439 
 432   0.0000       5.503133       149.7479 
 433   0.0000       5.503487       149.7575 
 434   0.0000       5.503623       149.7612 
 435   0.0000       5.503769       149.7652 
 436   0.0000       5.505018       149.7992 
 437   0.0000       5.510907       149.9594 
 438   0.0000       5.559401       151.2790 
 439   0.0000       5.559543       151.2829 
 440   0.0000       6.202552       168.7800 
 441   0.0000       6.205262       168.8538 
 442   0.0000       6.205307       168.8550 
 443   0.0000       6.286301       171.0589 
 444   0.0000       6.288799       171.1269 
 445   0.0000       6.288872       171.1289 
 446   0.0000       6.299663       171.4225 
 447   0.0000       6.299742       171.4247 
 448   0.0000       6.302125       171.4895 
 449   0.0000       6.338618       172.4826 
 450   0.0000       6.338728       172.4856 
 451   0.0000       6.341727       172.5672 
 452   0.0000       6.382408       173.6742 
 453   0.0000       6.382595       173.6792 
 454   0.0000       6.382721       173.6827 
 455   0.0000       6.393567       173.9778 
 456   0.0000       6.408980       174.3972 
 457   0.0000       6.409151       174.4019 
 458   0.0000       6.414795       174.5554 
 459   0.0000       6.415093       174.5636 
 460   0.0000       6.415187       174.5661 
 461   0.0000       6.446376       175.4148 
 462   0.0000       6.446545       175.4194 
 463   0.0000       6.466258       175.9558 
 464   0.0000       6.630439       180.4234 
 465   0.0000       6.650754       180.9762 
 466   0.0000       6.650871       180.9794 
 467   0.0000       6.651085       180.9852 
 468   0.0000       6.654956       181.0906 
 469   0.0000       6.655096       181.0944 
 470   0.0000       6.818739       185.5473 
 471   0.0000       6.818897       185.5516 
 472   0.0000       6.821494       185.6223 
 473   0.0000       6.825233       185.7240 
 474   0.0000       6.828364       185.8092 
 475   0.0000       6.828718       185.8189 
 476   0.0000       6.834505       185.9763 
 477   0.0000       6.836945       186.0427 
 478   0.0000       6.836962       186.0432 
 479   0.0000       6.848935       186.3690 
 480   0.0000       6.848969       186.3699 
 481   0.0000       6.851495       186.4386 
 482   0.0000       7.173180       195.1922 
 483   0.0000       7.173308       195.1956 
 484   0.0000       7.173451       195.1995 
 485   0.0000       7.186056       195.5425 
 486   0.0000       7.186210       195.5467 
 487   0.0000       7.197338       195.8495 
 488   0.0000      23.058666       627.4582 
 489   0.0000      23.058756       627.4607 
 490   0.0000      23.083316       628.1290 
 491   0.0000      23.083488       628.1337 
 492   0.0000      23.083712       628.1397 
 493   0.0000      23.151234       629.9771 
 494   0.0000      41.553837      1130.7374 
 495   0.0000      41.558865      1130.8742 
 496   0.0000      41.565381      1131.0515 
 497   0.0000      44.147240      1201.3075 
 498   0.0000      44.285988      1205.0830 
 499   0.0000      44.286174      1205.0880 
 500   0.0000      44.304540      1205.5878 
 501   0.0000      44.304946      1205.5989 
 502   0.0000      44.305144      1205.6043 
 503   0.0000      63.815599      1736.5107 
 504   0.0000     436.699718     11883.2035 

                    ********************************
                    * MULLIKEN POPULATION ANALYSIS *
                    ********************************

-----------------------
MULLIKEN ATOMIC CHARGES
-----------------------
   0 Os:    1.917347
   1 C :   -0.045425
   2 C :   -0.044531
   3 C :   -0.045511
   4 C :   -0.044483
   5 O :   -0.273839
   6 O :   -0.275059
   7 O :   -0.274141
   8 O :   -0.275219
   9 C :   -0.045039
  10 C :   -0.044939
  11 O :   -0.274658
  12 O :   -0.274504
Sum of atomic charges:   -0.0000000

--------------------------------
MULLIKEN REDUCED ORBITAL CHARGES
--------------------------------
  0 Oss       :     2.083834  s :     2.083834
      pz      :     2.053756  p :     6.167137
      px      :     2.053355
      py      :     2.060026
      dz2     :     0.447617  d :     5.764370
      dxz     :     1.624498
      dyz     :     1.621355
      dx2y2   :     0.449307
      dxy     :     1.621593
      f0      :     0.021720  f :     0.067312
      f+1     :     0.008488
      f-1     :     0.008452
      f+2     :     0.001209
      f-2     :     0.000004
      f+3     :     0.014167
      f-3     :     0.013271
  1 C s       :     3.609108  s :     3.609108
      pz      :     0.689014  p :     2.316967
      px      :     0.927916
      py      :     0.700037
      dz2     :    -0.002441  d :     0.101218
      dxz     :     0.056531
      dyz     :     0.002463
      dx2y2   :    -0.012568
      dxy     :     0.057233
      f0      :     0.002336  f :     0.018132
      f+1     :     0.002056
      f-1     :     0.000406
      f+2     :     0.003949
      f-2     :     0.000122
      f+3     :     0.003397
      f-3     :     0.005866
  2 C s       :     3.611296  s :     3.611296
      pz      :     0.692952  p :     2.314633
      px      :     0.690649
      py      :     0.931032
      dz2     :    -0.002562  d :     0.100465
      dxz     :     0.002506
      dyz     :     0.057006
      dx2y2   :    -0.013240
      dxy     :     0.056754
      f0      :     0.002342  f :     0.018138
      f+1     :     0.000410
      f-1     :     0.002063
      f+2     :     0.003947
      f-2     :     0.000123
      f+3     :     0.005881
      f-3     :     0.003372
  3 C s       :     3.609022  s :     3.609022
      pz      :     0.688893  p :     2.317144
      px      :     0.927828
      py      :     0.700424
      dz2     :    -0.002486  d :     0.101213
      dxz     :     0.056504
      dyz     :     0.002464
      dx2y2   :    -0.012515
      dxy     :     0.057245
      f0      :     0.002336  f :     0.018132
      f+1     :     0.002056
      f-1     :     0.000406
      f+2     :     0.003948
      f-2     :     0.000122
      f+3     :     0.003399
      f-3     :     0.005865
  4 C s       :     3.611196  s :     3.611196
      pz      :     0.692834  p :     2.314713
      px      :     0.690993
      py      :     0.930886
      dz2     :    -0.002623  d :     0.100438
      dxz     :     0.002504
      dyz     :     0.056976
      dx2y2   :    -0.013201
      dxy     :     0.056782
      f0      :     0.002342  f :     0.018136
      f+1     :     0.000409
      f-1     :     0.002063
      f+2     :     0.003947
      f-2     :     0.000122
      f+3     :     0.005880
      f-3     :     0.003372
  5 O s       :     3.958154  s :     3.958154
      pz      :     1.483854  p :     4.263908
[...]
Shell pair information
Total number of shell pairs                 ...     15753
Shell pairs after pre-screening             ...     12630
Total number of primitive shell pairs       ...     43350
Primitive shell pairs kept                  ...     25096
          la=0 lb=0:   2289 shell pairs
          la=1 lb=0:   3039 shell pairs
          la=1 lb=1:   1018 shell pairs
          la=2 lb=0:   2427 shell pairs
          la=2 lb=1:   1611 shell pairs
          la=2 lb=2:    651 shell pairs
          la=3 lb=0:    670 shell pairs
          la=3 lb=1:    485 shell pairs
          la=3 lb=2:    383 shell pairs
          la=3 lb=3:     57 shell pairs

Calculating one electron integrals          ... done (  0.0 sec)
Calculating ECP integrals                   ... done (  1.0 sec)
Calculating RI/J V-Matrix + Cholesky decomp.... done (  0.0 sec)
Calculating Nuclear repulsion               ... done (  0.0 sec) ENN=    726.943263655508 Eh

SHARK setup successfully completed in   1.6 seconds

Maximum memory used throughout the entire GTOINT-calculation: 24.8 MB


           ************************************************************
           *        Program running with 8 parallel MPI-processes     *
           *              working on a common directory               *
           ************************************************************

Diagonalization of the overlap matrix:
Smallest eigenvalue                        ... 2.456e-05
Time for diagonalization                   ...    0.070 sec
Threshold for overlap eigenvalues          ... 1.000e-08
Number of eigenvalues below threshold      ... 0
Time for construction of square roots      ...    0.127 sec
Total time needed                          ...    0.198 sec

-------------------
DFT GRID GENERATION
-------------------

General Integration Accuracy     IntAcc      ... 4.388
Radial Grid Type                 RadialGrid  ... OptM3 with GC (2021)
Angular Grid (max. ang.)         AngularGrid ... 4 (Lebedev-302)
Angular grid pruning method      GridPruning ... 4 (adaptive)
Weight generation scheme         WeightScheme... Becke
Basis function cutoff            BFCut       ... 1.0000e-11
Integration weight cutoff        WCut        ... 1.0000e-14
Angular grids for H and He will be reduced by one unit
Partially contracted basis set               ... off
Rotationally invariant grid construction     ... off

Total number of grid points                  ...    88897
Total number of batches                      ...     1396
Average number of points per batch           ...       63
Average number of grid points per atom       ...     6838
Time for grid setup =    0.655 sec

--------------------
COSX GRID GENERATION
--------------------

GRIDX 1
-------
General Integration Accuracy     IntAcc      ... 3.816
Radial Grid Type                 RadialGrid  ... OptM3 with GC (2021)
Angular Grid (max. ang.)         AngularGrid ... 1 (Lebedev-50)
Angular grid pruning method      GridPruning ... 4 (adaptive)
Weight generation scheme         WeightScheme... Becke
Basis function cutoff            BFCut       ... 1.0000e-11
Integration weight cutoff        WCut        ... 1.0000e-14
Angular grids for H and He will be reduced by one unit
Partially contracted basis set               ... on
Rotationally invariant grid construction     ... off

Total number of grid points                  ...    11203
Total number of batches                      ...      182
Average number of points per batch           ...       61
Average number of grid points per atom       ...      862
UseSFitting                                  ... on

GRIDX 2
-------
General Integration Accuracy     IntAcc      ... 4.020
Radial Grid Type                 RadialGrid  ... OptM3 with GC (2021)
Angular Grid (max. ang.)         AngularGrid ... 2 (Lebedev-110)
Angular grid pruning method      GridPruning ... 4 (adaptive)
Weight generation scheme         WeightScheme... Becke
Basis function cutoff            BFCut       ... 1.0000e-11
Integration weight cutoff        WCut        ... 1.0000e-14
Angular grids for H and He will be reduced by one unit
Partially contracted basis set               ... on
Rotationally invariant grid construction     ... off

Total number of grid points                  ...    30924
Total number of batches                      ...      489
Average number of points per batch           ...       63
Average number of grid points per atom       ...     2379
UseSFitting                                  ... on

GRIDX 3
-------
General Integration Accuracy     IntAcc      ... 4.338
Radial Grid Type                 RadialGrid  ... OptM3 with GC (2021)
Angular Grid (max. ang.)         AngularGrid ... 3 (Lebedev-194)
Angular grid pruning method      GridPruning ... 4 (adaptive)
Weight generation scheme         WeightScheme... Becke
Basis function cutoff            BFCut       ... 1.0000e-11
Integration weight cutoff        WCut        ... 1.0000e-14
Angular grids for H and He will be reduced by one unit
Partially contracted basis set               ... on
Rotationally invariant grid construction     ... off

Total number of grid points                  ...    65495
Total number of batches                      ...     1030
Average number of points per batch           ...       63
Average number of grid points per atom       ...     5038
UseSFitting                                  ... on

Time for X-Grid setup             =    1.579 sec

--------------
SCF ITERATIONS
--------------
ITER       Energy         Delta-E        Max-DP      RMS-DP      [F,P]     Damp
               ***  Starting incremental Fock matrix formation  ***
  0   -770.7440687472   0.000000000000 0.00203217  0.00003121  0.0554768 0.7000
  1   -770.7446193440  -0.000550596749 0.00183693  0.00002859  0.0388529 0.7000
                               ***Turning on DIIS***
  2   -770.7450556102  -0.000436266287 0.00472126  0.00007504  0.0271993 0.0000
  3   -770.7461688241  -0.001113213886 0.00078583  0.00001166  0.0013702 0.0000
  4   -770.7461880254  -0.000019201262 0.00088926  0.00001171  0.0005970 0.0000
               *** Restarting incremental Fock matrix formation ***
                                   *** Resetting DIIS ***
  5   -770.7461945087  -0.000006483320 0.00026180  0.00000462  0.0001999 0.0000
  6   -770.7461938118   0.000000696961 0.00017219  0.00000281  0.0004342 0.0000
  7   -770.7461949466  -0.000001134875 0.00003468  0.00000050  0.0000444 0.0000
  8   -770.7461949494  -0.000000002770 0.00003744  0.00000044  0.0000395 0.0000
  9   -770.7461949485   0.000000000930 0.00004707  0.00000047  0.0000184 0.0000
 10   -770.7461949571  -0.000000008666 0.00003948  0.00000032  0.0000149 0.0000
 11   -770.7461949338   0.000000023386 0.00004200  0.00000056  0.0000050 0.0000
 12   -770.7461949330   0.000000000723 0.00002372  0.00000031  0.0000012 0.0000
                 **** Energy Check signals convergence ****

               *****************************************************
               *                     SUCCESS                       *
               *           SCF CONVERGED AFTER  13 CYCLES          *
               *****************************************************

Old exchange energy                            =    -17.722669604 Eh
New exchange energy                            =    -17.722667031 Eh
Exchange energy change after final integration =      0.000002573 Eh
Total energy after final integration           =   -770.746192352 Eh
Final COS-X integration done in                =     9.992 sec
Total Energy       :         -770.74619235 Eh          -20973.07014 eV
  Last Energy change         ...    8.4564e-09  Tolerance :   1.0000e-08
  Last MAX-Density change    ...    0.0000e+00  Tolerance :   1.0000e-07
             **** THE GBW FILE WAS UPDATED (OsCO6.gbw) ****
             **** DENSITY OsCO6.scfp WAS UPDATED ****
             **** ENERGY FILE WAS UPDATED (OsCO6.en.tmp) ****
             **** THE GBW FILE WAS UPDATED (OsCO6.gbw) ****
             **** DENSITY OsCO6.scfp WAS UPDATED ****
Total SCF time: 0 days 0 hours 1 min 17 sec 

Maximum memory used throughout the entire SCF-calculation: 98.0 MB

-------------------------   --------------------
FINAL SINGLE POINT ENERGY      -770.746192351695
-------------------------   --------------------



           ************************************************************
           *        Program running with 8 parallel MPI-processes     *
           *              working on a common directory               *
           ************************************************************
------------------------------------------------------------------------------
                         ORCA SCF GRADIENT CALCULATION
------------------------------------------------------------------------------

 ... reading COSX grid (gridx3)
Gradient of the Kohn-Sham DFT energy:
Kohn-Sham wavefunction type      ... RKS
Hartree-Fock exchange scaling    ...    0.200
Number of operators              ...    1
Number of atoms                  ...   13
Basis set dimensions             ...  505
Integral neglect threshold       ... 2.5e-11
Integral primitive cutoff        ... 2.5e-12
SHARK Integral package           ... ON

Nuc. rep. gradient       (SHARK) ... done (  0.0 sec)
HCore & Overlap gradient (SHARK) ... done (  0.2 sec)
ECP gradient             (SHARK) ... done (  4.8 sec)
RI-J gradient            (SHARK) ... done (  1.5 sec)
COSX-gradient                    ... done ( 12.5 sec)
Exchange-correlation gradient    ... done

------------------
CARTESIAN GRADIENT
------------------

   1   Os  :    0.001158292    0.000001453   -0.000046772
   2   C   :   -0.000085727   -0.000809966   -0.000534472
   3   C   :   -0.000284694   -0.000226189    0.000334398
   4   C   :    0.000239051   -0.000205414   -0.000049234
   5   C   :    0.000085912    0.000275900    0.001356974
   6   O   :    0.000291279    0.000151816   -0.000238866
   7   O   :    0.000334446    0.000505417    0.000290458
   8   O   :   -0.000064204   -0.000252993   -0.000696506
   9   O   :   -0.000410956    0.000287844   -0.000176019
  10   C   :   -0.001591420    0.000335013   -0.000145460
  11   C   :   -0.001203892   -0.000736120   -0.000239239
  12   O   :    0.001003773    0.000024955    0.000095805
  13   O   :    0.000882034    0.000242938    0.000129574

Difference to translation invariance:
           :    0.0003538927   -0.0004053458    0.0000806418

Difference to rotation invariance:
           :    0.0022640425   -0.0003595120   -0.0011870154

Norm of the cartesian gradient     ...    0.0035498976
RMS gradient                       ...    0.0005684385
MAX gradient                       ...    0.0015914203

-------
TIMINGS
-------

Total SCF gradient time            ...       25.606 sec

One electron gradient       ....       4.985 sec  ( 19.5%)
RI-J Coulomb gradient       ....       1.498 sec  (  5.9%)
COSX gradient               ....      12.521 sec  ( 48.9%)
XC gradient                 ....       4.356 sec  ( 17.0%)

Maximum memory used throughout the entire SCFGRAD-calculation: 70.1 MB
------------------------------------------------------------------------------
                         ORCA GEOMETRY RELAXATION STEP
------------------------------------------------------------------------------

Reading the OPT-File                    .... done
Getting information on internals        .... done
Copying old internal coords+grads       .... done
Making the new internal coordinates     .... (new redundants).... done
Validating the new internal coordinates .... (new redundants).... done
Calculating the B-matrix                .... done
Calculating the G,G- and P matrices     .... done
Transforming gradient to internals      .... done
Projecting the internal gradient        .... done
Number of atoms                         ....  13
Number of internal coordinates          ....  36
Current Energy                          ....  -770.746192352 Eh
Current gradient norm                   ....     0.003549898 Eh/bohr
Maximum allowed component of the step   ....  0.300
Current trust radius                    ....  0.300
Resetting Hessian after 50 BFGS Update Steps....
Build internal Hessian                  .... (Almloef) done
Updating Hessian with the last 5 steps  .... done
Forming the augmented Hessian           .... done
Diagonalizing the augmented Hessian     .... done
Last element of RFO vector              ....  0.865119168
Lowest eigenvalues of augmented Hessian:
 -0.000133856  0.000027297  0.000562816  0.084079314  0.098369515
Length of the computed step             ....  0.579765643
Warning: the length of the step is outside the trust region - taking restricted step instead
The input lambda is                     ....    -0.000134
   iter:   1  x=   -0.000203  g= 3545.318793 f(x)=     0.246128
   iter:   2  x=   -0.000289  g= 1200.850109 f(x)=     0.102410
   iter:   3  x=   -0.000355  g=  524.115583 f(x)=     0.034868
   iter:   4  x=   -0.000377  g=  331.037148 f(x)=     0.007179
   iter:   5  x=   -0.000378  g=  291.256716 f(x)=     0.000446
   iter:   6  x=   -0.000378  g=  288.731593 f(x)=     0.000002
   iter:   7  x=   -0.000378  g=  288.720580 f(x)=     0.000000
   iter:   8  x=   -0.000378  g=  288.720580 f(x)=     0.000000
The output lambda is                    ....    -0.000378 (8 iterations)
The final length of the internal step   ....  0.300000000
Converting the step to cartesian space:
 Initial RMS(Int)=    0.0500000000
Transforming coordinates:
 Iter   0:  RMS(Cart)=    0.2956709968 RMS(Int)=    0.0490864940
 Iter   1:  RMS(Cart)=    0.0164940610 RMS(Int)=    0.0102164743
 Iter   2:  RMS(Cart)=    0.0019166231 RMS(Int)=    0.0014252991
 Iter   3:  RMS(Cart)=    0.0009008958 RMS(Int)=    0.0006794054
 Iter   4:  RMS(Cart)=    0.0004639338 RMS(Int)=    0.0003373880
 Iter   5:  RMS(Cart)=    0.0002347091 RMS(Int)=    0.0001679120
 Iter   6:  RMS(Cart)=    0.0001186540 RMS(Int)=    0.0000836184
 Iter   7:  RMS(Cart)=    0.0000600652 RMS(Int)=    0.0000416910
 Iter   8:  RMS(Cart)=    0.0000304166 RMS(Int)=    0.0000208128
 Iter   9:  RMS(Cart)=    0.0000154058 RMS(Int)=    0.0000104028
 Iter  10:  RMS(Cart)=    0.0000078048 RMS(Int)=    0.0000052058
 Iter  11:  RMS(Cart)=    0.0000039550 RMS(Int)=    0.0000026080
 Iter  12:  RMS(Cart)=    0.0000020045 RMS(Int)=    0.0000013080
 Iter  13:  RMS(Cart)=    0.0000010162 RMS(Int)=    0.0000006566
 Iter  14:  RMS(Cart)=    0.0000005152 RMS(Int)=    0.0000003299
 Iter  15:  RMS(Cart)=    0.0000002613 RMS(Int)=    0.0000001659
 Iter  16:  RMS(Cart)=    0.0000001325 RMS(Int)=    0.0000000835
 Iter  17:  RMS(Cart)=    0.0000000672 RMS(Int)=    0.0000000421
done
Storing new coordinates                 .... done

                                .--------------------.
          ----------------------|Geometry convergence|-------------------------
          Item                value                   Tolerance       Converged
          ---------------------------------------------------------------------
          Energy change      -0.0000062407            0.0000050000      NO
          RMS gradient        0.0003930383            0.0001000000      NO
          MAX gradient        0.0009938085            0.0003000000      NO
          RMS step            0.0500000000            0.0020000000      NO
          MAX step            0.1815541848            0.0040000000      NO
          ........................................................
          Max(Bonds)      0.0268      Max(Angles)   10.40
          Max(Dihed)        0.00      Max(Improp)    0.00
          ---------------------------------------------------------------------

The optimization has not yet converged - more geometry cycles are needed


    ---------------------------------------------------------------------------
                         Redundant Internal Coordinates
                            (Angstroem and degrees)

        Definition                    Value    dE/dq     Step     New-Value
    ----------------------------------------------------------------------------
     1. B(C   1,Os  0)                1.9682  0.000010 -0.0021    1.9661   
     2. B(C   2,Os  0)                6.2068 -0.000012 -0.0268    6.1800   
     3. B(C   3,Os  0)                1.9692  0.000255 -0.0031    1.9661   
     4. B(C   4,Os  0)                1.9682 -0.000129  0.0016    1.9698   
     5. B(O   5,C   2)                1.1253  0.000423  0.0001    1.1254   
     6. B(O   6,C   1)                1.1436  0.000582 -0.0001    1.1434   
     7. B(O   7,C   4)                1.1431  0.000269 -0.0001    1.1430   
     8. B(O   8,C   3)                1.1432  0.000521  0.0001    1.1433   
     9. B(C   9,Os  0)                1.9808  0.000073  0.0004    1.9813   
    10. B(C  10,Os  0)                1.9809 -0.000085  0.0003    1.9812   
    11. B(O  11,C   9)                1.1367 -0.000071 -0.0005    1.1362   
    12. B(O  12,C  10)                1.1367  0.000144 -0.0003    1.1364   
    13. A(C   3,Os  0,C   9)           90.02 -0.000599    0.50     90.52   
    14. A(C   2,Os  0,C   9)           89.65 -0.000264   -5.83     83.83   
    15. A(C   1,Os  0,C  10)           89.72  0.000099    0.22     89.93   
    16. A(C   4,Os  0,C  10)           89.93 -0.000498    0.25     90.18   
    17. A(C   2,Os  0,C  10)           89.99  0.000002    5.86     95.85   
    18. A(C   4,Os  0,C   9)           90.31  0.000747   -0.44     89.87   
    19. A(C   3,Os  0,C  10)           90.64  0.000650    0.06     90.71   
    20. A(C   3,Os  0,C   4)          119.34 -0.000191    1.03    120.37   
    21. A(C   1,Os  0,C   2)           52.47  0.000597  -10.40     42.07   
    22. A(C   2,Os  0,C   3)           67.79 -0.000429    8.35     76.14   
    23. A(C   1,Os  0,C   4)          120.40  0.000026    0.88    121.28   
    24. A(C   1,Os  0,C   9)           89.39 -0.000394   -0.59     88.80   
    25. L(Os  0,C   1,O   6,C   9, 1) 180.32  0.000490   -0.71    179.62   
    26. L(Os  0,C   1,O   6,C   9, 2) 179.42 -0.000207   -1.06    178.36   
    27. L(Os  0,C   2,O   5,C   9, 2) 209.37  0.000036    0.41    209.78   
    28. L(Os  0,C   2,O   5,C   9, 1) 118.26 -0.000032    4.54    122.80   
    29. L(Os  0,C   3,O   8,C   4, 2) 180.88  0.000104    2.11    182.99   
    30. L(Os  0,C   3,O   8,C   4, 1) 180.05  0.000207    0.63    180.69   
    31. L(Os  0,C   4,O   7,C   3, 2) 177.82 -0.000350   -0.90    176.92   
    32. L(Os  0,C   4,O   7,C   3, 1) 179.97 -0.000269   -0.66    179.31   
    33. L(Os  0,C   9,O  11,C   2, 2) 178.70 -0.000994   -2.62    176.09   
    34. L(Os  0,C   9,O  11,C   2, 1) 179.76 -0.000125   -0.30    179.46   
    35. L(Os  0,C  10,O  12,C   4, 2) 178.34 -0.000680    0.43    178.77   
    36. L(Os  0,C  10,O  12,C   4, 1) 180.12  0.000424    1.51    181.62   
    ----------------------------------------------------------------------------




    ----------------------------------------------------------------------------
                                   ERROR !!!
       The optimization did not converge but reached the maximum 
       number of optimization cycles.
       As a subsequent Frequencies calculation has been requested
       ORCA will abort at this point of the run.
       Please restart the calculation with the lowest energy geometry and/or
       a larger maxiter for the geometry optimization.
    ----------------------------------------------------------------------------


[file orca_main/run.cpp, line 12331]: ORCA finished with error return - aborting the run
