
                                 *****************
                                 * O   R   C   A *
                                 *****************

                                            #,                                       
                                            ###                                      
                                            ####                                     
                                            #####                                    
                                            ######                                   
                                           ########,                                 
                                     ,,################,,,,,                         
                               ,,#################################,,                 
                          ,,##########################################,,             
                       ,#########################################, ''#####,          
                    ,#############################################,,   '####,        
                  ,##################################################,,,,####,       
                ,###########''''           ''''###############################       
              ,#####''   ,,,,##########,,,,          '''####'''          '####       
            ,##' ,,,,###########################,,,                        '##       
           ' ,,###''''                  '''############,,,                           
         ,,##''                                '''############,,,,        ,,,,,,###''
      ,#''                                            '''#######################'''  
     '                                                          ''''####''''         
             ,#######,   #######,   ,#######,      ##                                
            ,#'     '#,  ##    ##  ,#'     '#,    #''#        ######   ,####,        
            ##       ##  ##   ,#'  ##            #'  '#       #        #'  '#        
            ##       ##  #######   ##           ,######,      #####,   #    #        
            '#,     ,#'  ##    ##  '#,     ,#' ,#      #,         ##   #,  ,#        
             '#######'   ##     ##  '#######'  #'      '#     #####' # '####'        



                  #######################################################
                  #                        -***-                        #
                  #          Department of theory and spectroscopy      #
                  #    Directorship and core code : Frank Neese         #
                  #        Max Planck Institute fuer Kohlenforschung    #
                  #                Kaiser Wilhelm Platz 1               #
                  #                 D-45470 Muelheim/Ruhr               #
                  #                      Germany                        #
                  #                                                     #
                  #                  All rights reserved                #
                  #                        -***-                        #
                  #######################################################



                         Program Version 5.0.4 -  RELEASE  -

 With contributions from (in alphabetic order):
   Daniel Aravena         : Magnetic Suceptibility
   Michael Atanasov       : Ab Initio Ligand Field Theory (pilot matlab implementation)
   Alexander A. Auer      : GIAO ZORA, VPT2 properties, NMR spectrum
   Ute Becker             : Parallelization
   Giovanni Bistoni       : ED, misc. LED, open-shell LED, HFLD
   Martin Brehm           : Molecular dynamics
   Dmytro Bykov           : SCF Hessian
   Vijay G. Chilkuri      : MRCI spin determinant printing, contributions to CSF-ICE
   Dipayan Datta          : RHF DLPNO-CCSD density
   Achintya Kumar Dutta   : EOM-CC, STEOM-CC
   Dmitry Ganyushin       : Spin-Orbit,Spin-Spin,Magnetic field MRCI
   Miquel Garcia          : C-PCM and meta-GGA Hessian, CC/C-PCM, Gaussian charge scheme
   Yang Guo               : DLPNO-NEVPT2, F12-NEVPT2, CIM, IAO-localization
   Andreas Hansen         : Spin unrestricted coupled pair/coupled cluster methods
   Benjamin Helmich-Paris : MC-RPA, TRAH-SCF, COSX integrals
   Lee Huntington         : MR-EOM, pCC
   Robert Izsak           : Overlap fitted RIJCOSX, COSX-SCS-MP3, EOM
   Marcus Kettner         : VPT2
   Christian Kollmar      : KDIIS, OOCD, Brueckner-CCSD(T), CCSD density, CASPT2, CASPT2-K
   Simone Kossmann        : Meta GGA functionals, TD-DFT gradient, OOMP2, MP2 Hessian
   Martin Krupicka        : Initial AUTO-CI
   Lucas Lang             : DCDCAS
   Marvin Lechner         : AUTO-CI (C++ implementation), FIC-MRCC
   Dagmar Lenk            : GEPOL surface, SMD
   Dimitrios Liakos       : Extrapolation schemes; Compound Job, initial MDCI parallelization
   Dimitrios Manganas     : Further ROCIS development; embedding schemes
   Dimitrios Pantazis     : SARC Basis sets
   Anastasios Papadopoulos: AUTO-CI, single reference methods and gradients
   Taras Petrenko         : DFT Hessian,TD-DFT gradient, ASA, ECA, R-Raman, ABS, FL, XAS/XES, NRVS
   Peter Pinski           : DLPNO-MP2, DLPNO-MP2 Gradient
   Christoph Reimann      : Effective Core Potentials
   Marius Retegan         : Local ZFS, SOC
   Christoph Riplinger    : Optimizer, TS searches, QM/MM, DLPNO-CCSD(T), (RO)-DLPNO pert. Triples
   Tobias Risthaus        : Range-separated hybrids, TD-DFT gradient, RPA, STAB
   Michael Roemelt        : Original ROCIS implementation
   Masaaki Saitow         : Open-shell DLPNO-CCSD energy and density
   Barbara Sandhoefer     : DKH picture change effects
   Avijit Sen             : IP-ROCIS
   Kantharuban Sivalingam : CASSCF convergence, NEVPT2, FIC-MRCI
   Bernardo de Souza      : ESD, SOC TD-DFT
   Georgi Stoychev        : AutoAux, RI-MP2 NMR, DLPNO-MP2 response
   Willem Van den Heuvel  : Paramagnetic NMR
   Boris Wezisla          : Elementary symmetry handling
   Frank Wennmohs         : Technical directorship


 We gratefully acknowledge several colleagues who have allowed us to
 interface, adapt or use parts of their codes:
   Stefan Grimme, W. Hujo, H. Kruse, P. Pracht,  : VdW corrections, initial TS optimization,
                  C. Bannwarth, S. Ehlert          DFT functionals, gCP, sTDA/sTD-DF
   Ed Valeev, F. Pavosevic, A. Kumar             : LibInt (2-el integral package), F12 methods
   Garnet Chan, S. Sharma, J. Yang, R. Olivares  : DMRG
   Ulf Ekstrom                                   : XCFun DFT Library
   Mihaly Kallay                                 : mrcc  (arbitrary order and MRCC methods)
   Jiri Pittner, Ondrej Demel                    : Mk-CCSD
   Frank Weinhold                                : gennbo (NPA and NBO analysis)
   Christopher J. Cramer and Donald G. Truhlar   : smd solvation model
   Lars Goerigk                                  : TD-DFT with DH, B97 family of functionals
   V. Asgeirsson, H. Jonsson                     : NEB implementation
   FAccTs GmbH                                   : IRC, NEB, NEB-TS, DLPNO-Multilevel, CI-OPT
                                                   MM, QMMM, 2- and 3-layer-ONIOM, Crystal-QMMM,
                                                   LR-CPCM, SF, NACMEs, symmetry and pop. for TD-DFT,
                                                   nearIR, NL-DFT gradient (VV10), updates on ESD,
                                                   ML-optimized integration grids
   S Lehtola, MJT Oliveira, MAL Marques          : LibXC Library
   Liviu Ungur et al                             : ANISO software


 Your calculation uses the libint2 library for the computation of 2-el integrals
 For citations please refer to: http://libint.valeyev.net

 Your ORCA version has been built with support for libXC version: 5.1.0
 For citations please refer to: https://tddft.org/programs/libxc/

 This ORCA versions uses:
   CBLAS   interface :  Fast vector & matrix operations
   LAPACKE interface :  Fast linear algebra routines
   Shared memory     :  Shared parallel matrices


================================================================================

----- Orbital basis set information -----
Your calculation utilizes the basis: def2-SVP
   F. Weigend and R. Ahlrichs, Phys. Chem. Chem. Phys. 7, 3297 (2005).

The basis set includes element-specific modifications.

----- AuxJ basis set information -----
Your calculation utilizes the auxiliary basis: def2/J
   F. Weigend, Phys. Chem. Chem. Phys. 8, 1057 (2006).

The basis set includes element-specific modifications.

================================================================================
                                        WARNINGS
                       Please study these warnings very carefully!
================================================================================


INFO   : the flag for use of the SHARK integral package has been found!


WARNING: TRAH-SCF with ROHF wave function is not implemented yet
  ===> : Turning TRAH off

================================================================================
                                       INPUT FILE
================================================================================
NAME = TaCO6_atom73.inp
|  1> # input to generate an atomic fitting density for Ta
|  2> # this file is used internally by ORCA
|  3> #
|  4> # atomic ground state (S=4): 1s2 2s2 2p6 3s2 3p6 4s2 3d10 4p6 5s2 4d10 5p6 6s2 4f14 5d3 
|  5> #
|  6> ! RHF AllowRHF def2-SVP def2/J  NoMulliken NoLoewdin NoMayer NoPrintMOs 
|  7> 
|  8> %output print[p_atomdensfit] 2 end
|  9> 
| 10> %scf
| 11>   guess hcore
| 12>   maxiter 1000
| 13>   maxdisk 500000
| 14>   SCFMode Conventional
| 15>   lshift 0.200000
| 16>   hftyp rohf
| 17>   rohf_case sahf
| 18>   rohf_numop   2
| 19>   rohf_norb[1] 5
| 20>   rohf_nel[1]  3
| 21> end
| 22> 
| 23> %basis
| 24>   NewECP 73
| 25>     N_core 60
| 26>     lmax f
| 27>     s 3
| 28>       1      14.5464077000   1345.8806470000  2
| 29>       2       7.2732038000     36.7668062000  2
| 30>       3       2.0178811000    -12.0179609000  2
| 31>     p 3
| 32>       1       9.9355653000    378.4253015000  2
| 33>       2       4.9677824000     22.2930909000  2
| 34>       3       2.0178811000    -12.0179609000  2
| 35>     d 3
| 36>       1       6.3473769000    104.8839557000  2
| 37>       2       3.1736885000      8.7558481000  2
| 38>       3       2.0178811000    -12.0179609000  2
| 39>     f 1
| 40>       1       2.0178811000     12.0179609000  2
| 41>   end
| 42>   NewGTO 73
| 43>     s 4 
| 44>      1      24.4736509440      2.2386323911
| 45>      2      18.7213725490     -8.1183993878
| 46>      3      11.5000000000     37.0432560568
| 47>      4      10.3500000000    -30.6331089410
| 48>     s 1 
| 49>      1       3.8436180089      1.0000000000
| 50>     s 1 
| 51>      1       1.0202266016      1.0000000000
| 52>     s 1 
| 53>      1       0.4677478187      1.0000000000
| 54>     s 1 
| 55>      1       0.1032318667      1.0000000000
| 56>     s 1 
| 57>      1       0.0386744612      1.0000000000
| 58>     p 4 
| 59>      1      17.0000000000     -0.0771704057
| 60>      2      12.0081865360      0.2448500499
| 61>      3       5.0278760583     -0.6757474915
| 62>      4       1.1937124184      1.2268252800
| 63>     p 1 
| 64>      1       0.5788970705      1.0000000000
| 65>     p 1 
| 66>      1       0.2722519880      1.0000000000
| 67>     p 1 
| 68>      1       0.0650000000      1.0000000000
| 69>     d 3 
| 70>      1       3.9738796278     -0.0943566000
| 71>      2       1.4528884813      0.3316520432
| 72>      3       0.6104290854      0.7677130412
| 73>     d 1 
| 74>      1       0.2421627651      1.0000000000
| 75>     d 1 
| 76>      1       0.0879093183      1.0000000000
| 77>     f 1 
| 78>      1       0.3738600000      1.0000000000
| 79>     p 1 
| 80>      1       0.0277011051      1.0000000000
| 81>   end
| 82>   NewAuxGTO 73
| 83>     S 1
| 84>      1 1310.72 1.0
| 85>     S 1
| 86>      1  655.36 1.0
| 87>     S 1
| 88>      1  327.68 1.0
| 89>     S 1
| 90>      1  163.84 1.0
| 91>     S 1
| 92>      1   81.82 1.0
| 93>     S 1
| 94>      1   40.96 1.0
| 95>     S 1
| 96>      1   20.48 1.0
| 97>     S 1
| 98>      1   10.24 1.0
| 99>     S 1
|100>      1    5.12 1.0
|101>     S 1
|102>      1    2.56 1.0
|103>     S 1
|104>      1    1.28 1.0
|105>     S 1
|106>      1    0.64 1.0
|107>     S 1
|108>      1    0.32 1.0
|109>     S 1
|110>      1    0.16 1.0
|111>     S 1
|112>      1    0.08 1.0
|113>     S 1
|114>      1    0.04 1.0
|115>     S 1
|116>      1    0.02 1.0
|117>     S 1
|118>      1    0.01 1.0
|119>   end
|120> end
|121> 
|122> * xyz 0 4
|123> 73  0.0 0.0 0.0
|124> *
|125> 
|126> 
|127>                          ****END OF INPUT****
================================================================================

                       ****************************
                       * Single Point Calculation *
                       ****************************

---------------------------------
CARTESIAN COORDINATES (ANGSTROEM)
---------------------------------
  Ta     0.000000    0.000000    0.000000

----------------------------
CARTESIAN COORDINATES (A.U.)
----------------------------
  NO LB      ZA    FRAG     MASS         X           Y           Z
   0 Ta   13.0000*   0   180.948    0.000000    0.000000    0.000000
* core charge reduced due to ECP

--------------------------------
INTERNAL COORDINATES (ANGSTROEM)
--------------------------------
 Ta     0   0   0     0.000000000000     0.00000000     0.00000000

---------------------------
INTERNAL COORDINATES (A.U.)
---------------------------
 Ta     0   0   0     0.000000000000     0.00000000     0.00000000

---------------------
BASIS SET INFORMATION
---------------------
There are 1 groups of distinct atoms

 Group   1 Type Ta  : 9s8p5d1f contracted to 6s5p3d1f pattern {411111/41111/311/1}

Atom   0Ta   basis set group =>   1
---------------------------------
AUXILIARY/J BASIS SET INFORMATION
---------------------------------
There are 1 groups of distinct atoms

 Group   1 Type Ta  : 18s contracted to 18s pattern {111111111111111111}

Atom   0Ta   basis set group =>   1
-------------------------
ECP PARAMETER INFORMATION
-------------------------

 Group 1, Type Ta ECP (replacing 60 core electrons, lmax=3)

Atom   0Ta   ECP group =>   1

------------------------------------------------------------------------------
                           ORCA GTO INTEGRAL CALCULATION
------------------------------------------------------------------------------
------------------------------------------------------------------------------
                   ___                                                        
                  /   \      - P O W E R E D   B Y -                         
                 /     \                                                     
                 |  |  |   _    _      __       _____    __    __             
                 |  |  |  | |  | |    /  \     |  _  \  |  |  /  |          
                  \  \/   | |  | |   /    \    | | | |  |  | /  /          
                 / \  \   | |__| |  /  /\  \   | |_| |  |  |/  /          
                |  |  |   |  __  | /  /__\  \  |    /   |      \           
                |  |  |   | |  | | |   __   |  |    \   |  |\   \          
                \     /   | |  | | |  |  |  |  | |\  \  |  | \   \       
                 \___/    |_|  |_| |__|  |__|  |_| \__\ |__|  \__/        
                                                                              
                      - O R C A' S   B I G   F R I E N D -                    
                                      &                                       
                       - I N T E G R A L  F E E D E R -                       
                                                                              
 v1 FN, 2020, v2 2021                                                         
------------------------------------------------------------------------------


Reading SHARK input file TaCO6_atom73.SHARKINP.tmp ... ok
----------------------
SHARK INTEGRAL PACKAGE
----------------------

Number of atoms                             ...      1
Number of basis functions                   ...     43
Number of shells                            ...     15
Maximum angular momentum                    ...      3
Integral batch strategy                     ... SHARK/LIBINT Hybrid
RI-J (if used) integral strategy            ... SPLIT-RIJ (Revised 2003 algorithm where possible)
Printlevel                                  ...      1
Contraction scheme used                     ... SEGMENTED contraction
Coulomb Range Separation                    ... NOT USED
Exchange Range Separation                   ... NOT USED
Finite Nucleus Model                        ... NOT USED
Auxiliary Coulomb fitting basis             ... AVAILABLE
   # of basis functions in Aux-J            ...     18
   # of shells in Aux-J                     ...     18
   Maximum angular momentum in Aux-J        ...      0
Auxiliary J/K fitting basis                 ... NOT available
Auxiliary Correlation fitting basis         ... NOT available
Auxiliary 'external' fitting basis          ... NOT available
Integral threshold                          ...     1.000000e-10
Primitive cut-off                           ...     1.000000e-11
Primitive pair pre-selection threshold      ...     1.000000e-11

Calculating pre-screening integrals         ... done (  0.0 sec) Dimension = 15
Organizing shell pair data                  ... done (  0.0 sec)
Shell pair information
Total number of shell pairs                 ...       120
Shell pairs after pre-screening             ...       120
Total number of primitive shell pairs       ...       291
Primitive shell pairs kept                  ...       291
          la=0 lb=0:     21 shell pairs
          la=1 lb=0:     30 shell pairs
          la=1 lb=1:     15 shell pairs
          la=2 lb=0:     18 shell pairs
          la=2 lb=1:     15 shell pairs
          la=2 lb=2:      6 shell pairs
          la=3 lb=0:      6 shell pairs
          la=3 lb=1:      5 shell pairs
          la=3 lb=2:      3 shell pairs
          la=3 lb=3:      1 shell pairs

Calculating one electron integrals          ... done (  0.0 sec)
Calculating ECP integrals                   ... done (  0.0 sec)
Calculating RI/J V-Matrix + Cholesky decomp.... done (  0.0 sec)
Calculating Nuclear repulsion               ... done (  0.0 sec) ENN=      0.000000000000 Eh
Calculating 4-index integrals               ... 
    -> SHARK/Ints2Disk: Thresh =     1.000000e-10 TCut=    1.000000e-11 
    -> calling libint FockFlag=2 Lmax_loc=3
    -> L=0 0 1 3:     0.000 sec done=       105 (=100.0%) skipped=         0 
    -> L=0 1 0 3:     0.000 sec done=       180 (=100.0%) skipped=         0 
    -> L=0 1 1 3:     0.001 sec done=       150 (=100.0%) skipped=         0 
    -> L=0 1 2 2:     0.000 sec done=       180 (=100.0%) skipped=         0 
    -> L=0 1 3 3:     0.001 sec done=        30 (=100.0%) skipped=         0 
    -> L=0 2 0 3:     0.000 sec done=       108 (=100.0%) skipped=         0 
    -> L=0 2 1 3:     0.000 sec done=        90 (=100.0%) skipped=         0 
    -> L=0 2 2 2:     0.001 sec done=       108 (=100.0%) skipped=         0 
    -> L=0 3 0 3:     0.000 sec done=        21 (=100.0%) skipped=         0 
    -> L=0 3 1 1:     0.001 sec done=        90 (=100.0%) skipped=         0 
    -> L=0 3 1 2:     0.000 sec done=        90 (=100.0%) skipped=         0 
    -> L=0 3 1 3:     0.000 sec done=        30 (=100.0%) skipped=         0 
    -> L=0 3 2 2:     0.001 sec done=        36 (=100.0%) skipped=         0 
    -> L=1 1 1 2:     0.001 sec done=       225 (=100.0%) skipped=         0 
    -> L=1 1 1 3:     0.000 sec done=        75 (=100.0%) skipped=         0 
    -> L=1 1 2 2:     0.001 sec done=        90 (=100.0%) skipped=         0 
    -> L=1 2 1 2:     0.002 sec done=       120 (=100.0%) skipped=         0 
    -> L=1 2 1 3:     0.001 sec done=        75 (=100.0%) skipped=         0 
    -> L=1 2 2 2:     0.002 sec done=        90 (=100.0%) skipped=         0 
    -> L=1 3 1 3:     0.000 sec done=        15 (=100.0%) skipped=         0 
    -> L=1 3 2 2:     0.001 sec done=        30 (=100.0%) skipped=         0 
    -> L=2 2 2 2:     0.001 sec done=        21 (=100.0%) skipped=         0 
    ->Total LIBINT loop time =    0.015 sec
    -> L=0 0 0 0:     0.000 sec done=       231 (=100.0%) skipped=         0 
    -> L=1 0 0 0:     0.000 sec done=       630 (=100.0%) skipped=         0 
    -> L=1 0 1 0:     0.001 sec done=       465 (=100.0%) skipped=         0 
    -> L=1 1 0 0:     0.000 sec done=       315 (=100.0%) skipped=         0 
    -> L=1 1 1 0:     0.000 sec done=       450 (=100.0%) skipped=         0 
    -> L=1 1 1 1:     0.001 sec done=       120 (=100.0%) skipped=         0 
    -> L=2 0 0 0:     0.000 sec done=       378 (=100.0%) skipped=         0 
    -> L=2 0 1 0:     0.001 sec done=       540 (=100.0%) skipped=         0 
    -> L=2 0 1 1:     0.000 sec done=       270 (=100.0%) skipped=         0 
    -> L=2 0 2 0:     0.001 sec done=       171 (=100.0%) skipped=         0 
    -> L=2 1 0 0:     0.000 sec done=       315 (=100.0%) skipped=         0 
    -> L=2 1 1 0:     0.001 sec done=       450 (=100.0%) skipped=         0 
    -> L=2 1 2 0:     0.002 sec done=       270 (=100.0%) skipped=         0 
    -> L=2 2 0 0:     0.000 sec done=       126 (=100.0%) skipped=         0 
    -> L=3 0 0 0:     0.000 sec done=       126 (=100.0%) skipped=         0 
    -> L=3 2 0 0:     0.000 sec done=        63 (=100.0%) skipped=         0 
    -> L=3 2 1 0:     0.001 sec done=        90 (=100.0%) skipped=         0 
    -> L=3 2 1 1:     0.001 sec done=        45 (=100.0%) skipped=         0 
    -> L=3 2 2 0:     0.001 sec done=        54 (=100.0%) skipped=         0 
    -> L=3 2 2 1:     0.002 sec done=        45 (=100.0%) skipped=         0 
    -> L=3 2 2 2:     0.001 sec done=        18 (=100.0%) skipped=         0 
    -> L=3 2 3 0:     0.001 sec done=        18 (=100.0%) skipped=         0 
    -> L=3 2 3 1:     0.001 sec done=        15 (=100.0%) skipped=         0 
    -> L=3 2 3 2:     0.001 sec done=         6 (=100.0%) skipped=         0 
    -> L=3 3 0 0:     0.000 sec done=        21 (=100.0%) skipped=         0 
    -> L=3 3 1 1:     0.000 sec done=        15 (=100.0%) skipped=         0 
    -> L=3 3 2 0:     0.001 sec done=        18 (=100.0%) skipped=         0 
    -> L=3 3 2 1:     0.000 sec done=        15 (=100.0%) skipped=         0 
    -> L=3 3 2 2:     0.001 sec done=         6 (=100.0%) skipped=         0 
    -> L=3 3 3 0:     0.000 sec done=         6 (=100.0%) skipped=         0 
    -> L=3 3 3 1:     0.000 sec done=         5 (=100.0%) skipped=         0 
    -> L=3 3 3 2:     0.001 sec done=         3 (=100.0%) skipped=         0 
    -> L=3 3 3 3:     0.000 sec done=         1 (=100.0%) skipped=         0 
    ->Total SHARK integral loop time =    0.019 sec
    -> Total Integral generation matrix time =    0.041 sec
    -> Number of small integrals   =         0
    -> Number of medium integrals  =         0
    -> Number of large integrals   =     49446
    -> Number of MB stored         =         0 MB


SHARK setup successfully completed in   0.2 seconds

Maximum memory used throughout the entire GTOINT-calculation: 35.5 MB
-------------------------------------------------------------------------------
                                 ORCA SCF
-------------------------------------------------------------------------------

------------
SCF SETTINGS
------------
Hamiltonian:
 Ab initio Hamiltonian  Method          .... Hartree-Fock(GTOs)


General Settings:
 Integral files         IntName         .... TaCO6_atom73
 Hartree-Fock type      HFTyp           .... ROHF
 Total Charge           Charge          ....    0
 Multiplicity           Mult            ....    4
 Number of Electrons    NEL             ....   13
 Basis Dimension        Dim             ....   43
 Nuclear Repulsion      ENuc            ....      0.0000000000 Eh

Convergence Acceleration:
 DIIS                   CNVDIIS         .... on
   Start iteration      DIISMaxIt       ....    12
   Startup error        DIISStart       ....  0.200000
   # of expansion vecs  DIISMaxEq       ....     5
   Bias factor          DIISBfac        ....   1.050
   Max. coefficient     DIISMaxC        ....  10.000
 Trust-Rad. Augm. Hess. CNVTRAH         .... off
 SOSCF                  CNVSOSCF        .... off
 Level Shifting         CNVShift        .... on
   Level shift para.    LevelShift      ....    0.2000
   Turn off err/grad.   ShiftErr        ....    0.0010
 Zerner damping         CNVZerner       .... off
 Static damping         CNVDamp         .... on
   Fraction old density DampFac         ....    0.7000
   Max. Damping (<1)    DampMax         ....    0.9800
   Min. Damping (>=0)   DampMin         ....    0.0000
   Turn off err/grad.   DampErr         ....    0.1000
 Fernandez-Rico         CNVRico         .... off

SCF Procedure:
 Maximum # iterations   MaxIter         ....  1000
 SCF integral mode      SCFMode         .... Conventional
 Integral Threshold     Thresh          ....  1.000e-10 Eh
 Primitive CutOff       TCut            ....  1.000e-11 Eh
 Integral Buffer length BufferLength    .... 1048576
 Integral index format  IndFormat       ....     0
 Integral value format  ValFormat       ....     0
 Integral Storage       Thresh          ....  1.000e-10 Eh

Convergence Tolerance:
 Convergence Check Mode ConvCheckMode   .... Total+1el-Energy
 Convergence forced     ConvForced      .... 0
 Energy Change          TolE            ....  1.000e-06 Eh
 1-El. energy change                    ....  1.000e-03 Eh
 DIIS Error             TolErr          ....  1.000e-06


Diagonalization of the overlap matrix:
Smallest eigenvalue                        ... 2.105e-02
Time for diagonalization                   ...    0.001 sec
Threshold for overlap eigenvalues          ... 1.000e-08
Number of eigenvalues below threshold      ... 0
Time for construction of square roots      ...    0.001 sec
Total time needed                          ...    0.002 sec

--------------------
INITIAL GUESS: HCORE
--------------------
AVERAGE-CONFIGURATION (SAHF) CASE FOUND

-------------------
FINAL ROHF SETTINGS
-------------------
Number of operators             ... 2
  operator   0:   5 orbitals  10 electrons n(mue)= 2.000
  operator   1:   5 orbitals   3 electrons n(mue)= 0.600
Vector coupling coefficients a and b (Zerner convention):
   1.000    1.000           1.000    1.000 
   1.000    0.833           1.000    1.667 

                      -----------------
                      INTIAL GUESS DONE 
                      -----------------

 InCore treatment chosen:
   Memory dedicated               ...    1024 MB
   Memory needed                  ...      0 MB
   Number of tiny    integrals    ...       0
   Number of small   integrals    ...       0
   Number of regular integrals    ...   49446

--------------
SCF ITERATIONS
--------------
ITER       Energy         Delta-E        Max-DP      RMS-DP      [F,P]     Damp
  0    -51.9496733310   0.000000000000 2.45427679  0.07089377  0.6348237 0.7000
                            ****Activating DIIS****
  1    -54.8354001190  -2.885726787976 1.71662562  0.04804937  0.1714044 0.7000
  2    -54.6982629668   0.137137152243 3.99837704  0.10955836  0.0801498 0.0000
  3    -54.5460695123   0.152193454507 0.03032872  0.00155766  0.1886181 0.7000
  4    -54.4744441346   0.071625377702 0.02228025  0.00112633  0.2264364 0.7000
  5    -54.4581282262   0.016315908319 0.03644238  0.00190363  0.2321119 0.7000
  6    -54.3839738074   0.074154418806 0.02683197  0.00140443  0.2692246 0.7000
  7    -54.3632434600   0.020730347487 0.80278133  0.03034333  0.2712772 0.7000
  8    -55.8170095794  -1.453766119439 0.56195309  0.02122763  0.1322896 0.7000
  9    -55.8313778481  -0.014368268715 1.31122823  0.04928023  0.0470991 0.0000
 10    -55.8702329722  -0.038855124087 0.00275406  0.00017960  0.1323940 0.7000
 11    -55.8548457290   0.015387243228 0.00258208  0.00017111  0.1464056 0.7000
 12    -55.8485368843   0.006308844651 0.00980938  0.00066846  0.1498690 0.7000
 13    -55.7962232329   0.052313651458 0.00378706  0.00019636  0.1895195 0.7000
 14    -55.8095692308  -0.013345997898 0.42922550  0.00801777  0.1715084 0.7000
 15    -55.9980153186  -0.188446087860 0.88505185  0.01724676  0.0816006 0.0000
 16    -56.0754329572  -0.077417638552 0.17757329  0.00430374  0.0537734 0.0000
 17    -56.1008207183  -0.025387761116 0.30807086  0.00650503  0.0515941 0.0000
 18    -56.1062532861  -0.005432567801 0.19803472  0.00421493  0.0460331 0.0000
 19    -56.1138047735  -0.007551487454 0.16559151  0.00390930  0.0408734 0.0000
 20    -56.1195727210  -0.005767947414 0.19578821  0.00498602  0.0372881 0.0000
 21    -56.1258826025  -0.006309881594 0.46245970  0.00980119  0.0345419 0.0000
 22    -56.1229682158   0.002914386779 0.11800427  0.00243720  0.0279509 0.0000
 23    -56.1217158692   0.001252346557 0.15061986  0.00307847  0.0266364 0.0000
 24    -56.1195300349   0.002185834285 0.06272543  0.00132144  0.0251815 0.0000
 25    -56.1186124257   0.000917609243 0.02001022  0.00046686  0.0245459 0.0000
 26    -56.1184085976   0.000203828108 0.12519398  0.00252357  0.0242877 0.0000
 27    -56.1209915987  -0.002583001129 0.02774518  0.00057262  0.0250578 0.0000
 28    -56.1215927907  -0.000601191985 0.09660382  0.00193876  0.0251617 0.0000
 29    -56.1232834580  -0.001690667306 0.00427616  0.00016211  0.0258347 0.0000
 30    -56.1231184851   0.000164972942 0.01796147  0.00037004  0.0258929 0.0000
 31    -56.1234699078  -0.000351422723 0.04501982  0.00090959  0.0259740 0.0000
 32    -56.1242096717  -0.000739763928 0.02184979  0.00044285  0.0262953 0.0000
 33    -56.1245704211  -0.000360749428 0.04057536  0.00082232  0.0264361 0.0000
 34    -56.1251766224  -0.000606201272 0.00042831  0.00002735  0.0267520 0.0000
 35    -56.1251536455   0.000022976864 0.02866536  0.00058565  0.0267710 0.0000
 36    -56.1256006326  -0.000446987088 0.02430943  0.00049720  0.0269620 0.0000
 37    -56.1259568136  -0.000356180973 0.01615831  0.00033162  0.0271404 0.0000
 38    -56.1261915836  -0.000234769967 0.02139679  0.00044041  0.0272576 0.0000
 39    -56.1264926717  -0.000301088180 0.00776676  0.00016067  0.0274202 0.0000
 40    -56.1266031025  -0.000110430750 0.02362686  0.00049152  0.0274775 0.0000
 41    -56.1269510411  -0.000347938573 0.01403832  0.00029354  0.0276336 0.0000
 42    -56.1271574039  -0.000206362836 0.01410628  0.00029667  0.0277249 0.0000
 43    -56.1273673463  -0.000209942407 0.01437314  0.00030425  0.0278136 0.0000
 44    -56.1275852456  -0.000217899257 0.01132292  0.00024221  0.0278993 0.0000
 45    -56.1277659202  -0.000180674627 0.01627737  0.00035091  0.0279575 0.0000
 46    -56.1280338074  -0.000267887207 0.01119238  0.00024462  0.0280316 0.0000
 47    -56.1282293151  -0.000195507699 0.01230474  0.00027225  0.0280718 0.0000
 48    -56.1284555037  -0.000226188637 0.01193323  0.00026852  0.0281053 0.0000
 49    -56.1286908354  -0.000235331664 0.01154392  0.00026540  0.0281229 0.0000
 50    -56.1289386573  -0.000247821912 0.01248273  0.00029341  0.0281209 0.0000
 51    -56.1292298983  -0.000291241029 0.01140519  0.00027773  0.0280967 0.0000
 52    -56.1295291609  -0.000299262556 0.01204987  0.00030441  0.0280440 0.0000
 53    -56.1298833423  -0.000354181400 0.01275378  0.00033816  0.0279529 0.0000
 54    -56.1303124231  -0.000429080801 0.01412189  0.00039783  0.0278056 0.0000
 55    -56.1308667828  -0.000554359742 0.01691400  0.00051307  0.0275673 0.0000
 56    -56.1316583736  -0.000791590726 0.02244175  0.00074405  0.0271582 0.0000
 57    -56.1329473695  -0.001288995931 0.03440952  0.00125432  0.0263764 0.0000
 58    -56.1354440279  -0.002496658372 0.05560223  0.00222503  0.0246233 0.0000
 59    -56.1406944818  -0.005250453960 0.07021642  0.00313923  0.0203801 0.0000
 60    -56.1494870753  -0.008792593502 0.06512083  0.00265746  0.0157040 0.0000
 61    -56.1577679648  -0.008280889481 0.04745911  0.00161520  0.0172675 0.0000
 62    -56.1628130539  -0.005045089095 0.02036196  0.00066671  0.0179336 0.0000
 63    -56.1648551366  -0.002042082693 0.00615498  0.00025641  0.0181514 0.0000
 64    -56.1657430564  -0.000887919822 0.00907570  0.00034237  0.0182132 0.0000
 65    -56.1669003868  -0.001157330360 0.01321154  0.00052939  0.0182657 0.0000
 66    -56.1686737072  -0.001773320461 0.02890484  0.00108742  0.0183211 0.0000
 67    -56.1722978037  -0.003624096421 0.02515898  0.00091129  0.0183681 0.0000
 68    -56.1753139669  -0.003016163202 0.01704977  0.00061999  0.0183057 0.0000
 69    -56.1773560190  -0.002042052104 0.01772896  0.00066567  0.0182012 0.0000
 70    -56.1795502854  -0.002194266446 0.03061645  0.00117191  0.0180288 0.0000
 71    -56.1833801103  -0.003829824871 0.07496175  0.00299293  0.0175731 0.0000
 72    -56.1927145649  -0.009334454640 0.10880423  0.00556931  0.0154371 0.0000
 73    -56.2048780251  -0.012163460131 0.02924297  0.00145122  0.0065942 0.0000
 74    -56.2032297621   0.001648262968 0.06082792  0.00343759  0.0091239 0.0000
 75    -56.2064067454  -0.003176983332 0.01460217  0.00054843  0.0036846 0.0000
 76    -56.2067670170  -0.000360271564 0.01232196  0.00049978  0.0017976 0.0000
 77    -56.2069397402  -0.000172723175 0.01081993  0.00042347  0.0013953 0.0000
 78    -56.2070457224  -0.000105982240 0.00415742  0.00017452  0.0005718 0.0000
 79    -56.2070620212  -0.000016298808 0.00296382  0.00006989  0.0005175 0.0000
 80    -56.2070642675  -0.000002246295 0.00218908  0.00005068  0.0002827 0.0000
                 **** Energy Check signals convergence ****

               *****************************************************
               *                     SUCCESS                       *
               *           SCF CONVERGED AFTER  81 CYCLES          *
               *****************************************************


----------------
TOTAL SCF ENERGY
----------------

Total Energy       :          -56.20706509 Eh           -1529.47200 eV

Components:
Nuclear Repulsion  :            0.00000000 Eh               0.00000 eV
Electronic Energy  :          -56.20706509 Eh           -1529.47200 eV
One Electron Energy:          -93.63509067 Eh           -2547.94035 eV
Two Electron Energy:           37.42802557 Eh            1018.46835 eV

Virial components:
Potential Energy   :          -75.33946329 Eh           -2050.09102 eV
Kinetic Energy     :           19.13239819 Eh             520.61902 eV
Virial Ratio       :            3.93779507


---------------
SCF CONVERGENCE
---------------

  Last Energy change         ...   -8.2719e-07  Tolerance :   1.0000e-06
  Last MAX-Density change    ...    1.4273e-03  Tolerance :   1.0000e-05
  Last RMS-Density change    ...    3.6231e-05  Tolerance :   1.0000e-06
  Last DIIS Error            ...    1.0279e-04  Tolerance :   1.0000e-06

             **** THE GBW FILE WAS UPDATED (TaCO6_atom73.gbw) ****
             **** DENSITY TaCO6_atom73.scfp WAS UPDATED ****
             **** ENERGY FILE WAS UPDATED (TaCO6_atom73.en.tmp) ****
             **** THE GBW FILE WAS UPDATED (TaCO6_atom73.gbw) ****
             **** DENSITY TaCO6_atom73.scfp WAS UPDATED ****
----------------
ORBITAL ENERGIES
----------------

  NO   OCC          E(Eh)            E(eV) 
   0   2.0000      -3.228053       -87.8398 
   1   2.0000      -1.796630       -48.8888 
   2   2.0000      -1.796628       -48.8887 
   3   2.0000      -1.789037       -48.6822 
   4   2.0000      -0.293104        -7.9758 
   5   0.6000      -0.369886       -10.0651 
   6   0.6000      -0.357511        -9.7284 
   7   0.6000      -0.357504        -9.7282 
   8   0.6000      -0.354940        -9.6584 
   9   0.6000      -0.181794        -4.9469 
  10   0.0000      -0.078278        -2.1301 
  11   0.0000      -0.078276        -2.1300 
  12   0.0000      -0.146873        -3.9966 
  13   0.0000       0.044719         1.2169 
  14   0.0000       0.037055         1.0083 
  15   0.0000       0.037061         1.0085 
  16   0.0000       0.050138         1.3643 
  17   0.0000       0.172376         4.6906 
  18   0.0000       0.170773         4.6470 
  19   0.0000       0.170776         4.6471 
  20   0.0000       0.170157         4.6302 
  21   0.0000       0.179316         4.8794 
  22   0.0000       0.655291        17.8314 
  23   0.0000       0.655306        17.8318 
  24   0.0000       0.656544        17.8655 
  25   0.0000       0.840118        22.8608 
  26   0.0000       0.840122        22.8609 
  27   0.0000       0.826816        22.4988 
  28   0.0000       0.842408        22.9231 
  29   0.0000       0.835596        22.7377 
  30   0.0000       0.835601        22.7378 
  31   0.0000       0.832913        22.6647 
  32   0.0000       1.100933        29.9579 
  33   0.0000       1.118354        30.4320 
  34   0.0000       1.106784        30.1171 
  35   0.0000       1.106789        30.1173 
  36   0.0000       1.108805        30.1721 
  37   0.0000       1.641126        44.6573 
  38   0.0000      34.771939       946.1926 
  39   0.0000      34.771943       946.1927 
  40   0.0000      34.781917       946.4641 
  41   0.0000      78.184254      2127.5017 
  42   0.0000     677.577644     18437.8251 

Warning: MO coefficients are modified such that the real solid harmonic m components
have the correct order within each shell (0, +1, -1, +2, -2, ...) and all s orbitals
come before all p orbitals etc. (with increasing orbital energy within each block of given angular momentum).

CleanUpVectors: The p-vectors have cracked symmetry
CleanUpVectors: The p-vectors have cracked symmetry
CleanUpVectors: The p-vectors have cracked symmetry
CleanUpVectors: The d-vectors have cracked symmetry at i=5
CleanUpVectors: The d-vectors have cracked symmetry at i=6
CleanUpVectors: The d-vectors have cracked symmetry at i=7
CleanUpVectors: The d-vectors have cracked symmetry at i=8
CleanUpVectors: The p-vectors have cracked symmetry
CleanUpVectors: The p-vectors have cracked symmetry
CleanUpVectors: The p-vectors have cracked symmetry
CleanUpVectors: The d-vectors have cracked symmetry at i=12
CleanUpVectors: The p-vectors have cracked symmetry
CleanUpVectors: The p-vectors have cracked symmetry
CleanUpVectors: The p-vectors have cracked symmetry
CleanUpVectors: The d-vectors have cracked symmetry at i=17
CleanUpVectors: The d-vectors have cracked symmetry at i=18
CleanUpVectors: The d-vectors have cracked symmetry at i=19
CleanUpVectors: The d-vectors have cracked symmetry at i=20
CleanUpVectors: The d-vectors have cracked symmetry at i=21
CleanUpVectors: The p-vectors have cracked symmetry
CleanUpVectors: The p-vectors have cracked symmetry
CleanUpVectors: The p-vectors have cracked symmetry
CleanUpVectors: The f-vectors have cracked symmetry
CleanUpVectors: The f-vectors have cracked symmetry
CleanUpVectors: The f-vectors have cracked symmetry
CleanUpVectors: The f-vectors have cracked symmetry
CleanUpVectors: The f-vectors have cracked symmetry
CleanUpVectors: The f-vectors have cracked symmetry
CleanUpVectors: The f-vectors have cracked symmetry
CleanUpVectors: The d-vectors have cracked symmetry at i=32
CleanUpVectors: The d-vectors have cracked symmetry at i=33
CleanUpVectors: The d-vectors have cracked symmetry at i=34
CleanUpVectors: The d-vectors have cracked symmetry at i=35
CleanUpVectors: The d-vectors have cracked symmetry at i=36
CleanUpVectors: The p-vectors have cracked symmetry
CleanUpVectors: The p-vectors have cracked symmetry
CleanUpVectors: The p-vectors have cracked symmetry
--------------------------
ATOM BASIS FOR ELEMENT Ta
--------------------------
 NewGTO Ta
 S 9
    1         24.473650944000         0.204725173097
    2         18.721372549000        -0.742435750748
    3         11.500000000000         3.387642847678
    4         10.350000000000        -2.801428477210
    5          3.843618008900        -0.616021181573
    6          1.020226601600         0.834013622250
    7          0.467747818700         0.503541460714
    8          0.103231866700         0.013049591802
    9          0.038674461200        -0.002687473668
 P 23
    1         17.000000000000         0.019713354468
    2         12.008186536000        -0.062547498376
    3          5.027876058300         0.172621223251
    4          1.193712418400        -0.313395289236
    5         17.000000000000         0.007643500786
    6         12.008186536000        -0.024251674355
    7          5.027876058300         0.066930793425
    8          1.193712418400        -0.121513420941
    9         17.000000000000        -0.022674449542
   10         12.008186536000         0.071942606126
   11          5.027876058300        -0.198550237754
   12          1.193712418400         0.360469634132
   13          0.578897070500        -0.320059174235
   14          0.578897070500        -0.124097223221
   15          0.578897070500         0.368134485104
   16          0.272251988000        -0.098682730774
   17          0.272251988000        -0.038262464740
   18          0.272251988000         0.113505623981
   19          0.065000000000        -0.006606587113
   20          0.065000000000        -0.002561586049
   21          0.065000000000         0.007598946510
   22          0.373860000000         0.002796105472
   23          0.373860000000        -0.002217323603
 S 9
    1         24.473650944000         0.070197509035
    2         18.721372549000        -0.254571235831
    3         11.500000000000         1.161577180813
    4         10.350000000000        -0.960572155662
    5          3.843618008900        -0.229218512458
    6          1.020226601600         0.400558384406
    7          0.467747818700         0.374347727312
    8          0.103231866700        -0.782764196782
    9          0.038674461200        -0.442238731471
 D 23
    1         24.473650944000        -0.000000114887
    2         18.721372549000         0.000000544654
    3         11.500000000000        -0.000004045752
    4         10.350000000000         0.000003717395
    5          3.843618008900         0.000002456820
    6          1.020226601600        -0.000019614050
    7          0.467747818700        -0.000018206690
    8          0.103231866700         0.000490097661
    9          0.038674461200        -0.000681142358
   10          3.973879627800         0.002319573492
   11          1.452888481300        -0.008153020436
   12          0.610429085400        -0.018872731956
   13          3.973879627800        -0.032312495730
   14          1.452888481300         0.113574516567
   15          0.610429085400         0.262903966082
   16          3.973879627800         0.039209066172
   17          1.452888481300        -0.137815128012
   18          0.610429085400        -0.319016490984
   19          3.973879627800         0.020562347169
   20          1.452888481300        -0.072274164727
   21          0.610429085400        -0.167301302495
   22          3.973879627800        -0.003089590563
   23          1.452888481300         0.010859537358
 D 23
    1          3.973879627800         0.022489942447
    2          1.452888481300        -0.079049429124
    3          0.610429085400        -0.182984784452
    4          3.973879627800         0.030033599458
    5          1.452888481300        -0.105564471641
    6          0.610429085400        -0.244362195946
    7          3.973879627800         0.004781062585
    8          1.452888481300        -0.016804857054
    9          0.610429085400        -0.038900130968
   10          3.973879627800         0.032370454778
   11          1.452888481300        -0.113778235613
   12          0.610429085400        -0.263375537934
   13          3.973879627800        -0.021109577517
   14          1.452888481300         0.074197613254
   15          0.610429085400         0.171753729515
   16          0.242162765100        -0.179312336821
   17          0.242162765100        -0.239457922783
   18          0.242162765100        -0.038119417455
   19          0.242162765100        -0.258089672919
   20          0.242162765100         0.168306685658
   21          0.087909318300        -0.075671529276
   22          0.087909318300        -0.101053544533
   23          0.087909318300        -0.016086760482
 P 23
    1         17.000000000000        -0.003642076316
    2         12.008186536000         0.011555758451
    3          5.027876058300        -0.031892069405
    4          1.193712418400         0.057900321452
    5         17.000000000000         0.003467203108
    6         12.008186536000        -0.011000912155
    7          5.027876058300         0.030360781205
    8          1.193712418400        -0.055120254786
    9         17.000000000000        -0.001997665829
   10         12.008186536000         0.006338292166
   11          5.027876058300        -0.017492685966
   12          1.193712418400         0.031758119161
   13          0.578897070500         0.115547609358
   14          0.578897070500        -0.109999625358
   15          0.578897070500         0.063377450327
   16          0.272251988000        -0.063314035468
   17          0.272251988000         0.060274030939
   18          0.272251988000        -0.034727521929
   19          0.065000000000        -0.127647265944
   20          0.065000000000         0.121518320541
   21          0.065000000000        -0.070014068674
   22          0.373860000000         0.000682698012
   23          0.373860000000         0.002750483781
 P 23
    1         17.000000000000         0.004630849369
    2         12.008186536000        -0.014692986112
    3          5.027876058300         0.040550322582
    4          1.193712418400        -0.073619453244
    5         17.000000000000         0.001795530043
    6         12.008186536000        -0.005696945825
    7          5.027876058300         0.015722671291
    8          1.193712418400        -0.028544642566
    9         17.000000000000        -0.005326439249
   10         12.008186536000         0.016899987812
   11          5.027876058300        -0.046641298930
   12          1.193712418400         0.084677672266
   13          0.578897070500        -0.111580684113
   14          0.578897070500        -0.043263439280
   15          0.578897070500         0.128340977611
   16          0.272251988000        -0.058037246919
   17          0.272251988000        -0.022502917310
   18          0.272251988000         0.066754896392
   19          0.065000000000         1.133441011873
   20          0.065000000000         0.439471731009
   21          0.065000000000        -1.303692737541
   22          0.373860000000        -0.000991507999
   23          0.373860000000        -0.000984247073
 P 23
    1         17.000000000000        -0.075048421612
    2         12.008186536000         0.238117314661
    3          5.027876058300        -0.657166204910
    4          1.193712418400         1.193090797209
    5         17.000000000000        -0.144489926284
    6         12.008186536000         0.458444728127
    7          5.027876058300        -1.265235090414
    8          1.193712418400         2.297044996228
    9         17.000000000000        -0.113954916391
   10         12.008186536000         0.361561750408
   11          5.027876058300        -0.997853363559
   12          1.193712418400         1.811611212097
   13          0.578897070500        -1.525560592243
   14          0.578897070500        -2.937145549234
   15          0.578897070500        -2.316439520031
   16          0.272251988000         0.810930986959
   17          0.272251988000         1.561276786509
   18          0.272251988000         1.231332662734
   19          0.065000000000        -0.257340017459
   20          0.065000000000        -0.495453992954
   21          0.065000000000        -0.390749859140
   22          0.373860000000         0.000012709712
   23          0.373860000000         0.000003758355
 D 23
    1         24.473650944000         0.000003901911
    2         18.721372549000        -0.000018498056
    3         11.500000000000         0.000137405677
    4         10.350000000000        -0.000126253693
    5          3.843618008900        -0.000059427057
    6          1.020226601600        -0.001923527717
    7          0.467747818700         0.016473768231
    8          0.103231866700        -0.179830495801
    9          0.038674461200         0.407590877223
   10          3.973879627800        -0.006388905019
   11          1.452888481300         0.022456228852
   12          0.610429085400         0.051982009757
   13          3.973879627800         0.010621274463
   14          1.452888481300        -0.037332495842
   15          0.610429085400        -0.086417812000
   16          3.973879627800         0.008373312345
   17          1.452888481300        -0.029431180729
   18          0.610429085400        -0.068127731237
   19          3.973879627800         0.003863172655
   20          1.452888481300        -0.013578584903
   21          0.610429085400        -0.031431908606
   22          3.973879627800         0.016125144266
   23          1.452888481300        -0.056677932893
 F 23
    1         17.000000000000         0.000002769611
    2         12.008186536000        -0.000012440554
    3          5.027876058300         0.000082000565
    4          1.193712418400        -0.000627046820
    5         17.000000000000         0.000001073867
    6         12.008186536000        -0.000004823603
    7          5.027876058300         0.000031794258
    8          1.193712418400        -0.000243126230
    9         17.000000000000        -0.000003185628
   10         12.008186536000         0.000014309221
   11          5.027876058300        -0.000094317676
   12          1.193712418400         0.000721234044
   13          0.578897070500        -0.006293419268
   14          0.578897070500        -0.002440161170
   15          0.578897070500         0.007238738933
   16          0.272251988000         0.025512738086
   17          0.272251988000         0.009892109544
   18          0.272251988000        -0.029344946300
   19          0.065000000000        -0.049748868187
   20          0.065000000000        -0.019289237092
   21          0.065000000000         0.057221528341
   22          0.373860000000         0.446016469947
   23          0.373860000000        -0.420460137429
 D 23
    1         24.473650944000        -0.000000016375
    2         18.721372549000         0.000000077632
    3         11.500000000000        -0.000000576657
    4         10.350000000000         0.000000529855
    5          3.843618008900         0.000000382597
    6          1.020226601600        -0.000005687795
    7          0.467747818700         0.000012799517
    8          0.103231866700        -0.000027357839
    9          0.038674461200         0.000022785483
   10          3.973879627800         0.004802964253
   11          1.452888481300        -0.016881838769
   12          0.610429085400        -0.039078329377
   13          3.973879627800        -0.067014882772
   14          1.452888481300         0.235549212203
   15          0.610429085400         0.545252790568
   16          3.973879627800         0.081347364884
   17          1.452888481300        -0.285926154321
   18          0.610429085400        -0.661866079204
   19          3.973879627800         0.042660140393
   20          1.452888481300        -0.149945236736
   21          0.610429085400        -0.347095445568
   22          3.973879627800        -0.006386900404
   23          1.452888481300         0.022449182874
 P 23
    1         17.000000000000         0.126366880014
    2         12.008186536000        -0.400943037639
    3          5.027876058300         1.106539500521
    4          1.193712418400        -2.008931812005
    5         17.000000000000         0.048996614463
    6         12.008186536000        -0.155458862598
    7          5.027876058300         0.429041923719
    8          1.193712418400        -0.778929237354
    9         17.000000000000        -0.145348288829
   10         12.008186536000         0.461168182931
   11          5.027876058300        -1.272751395815
   12          1.193712418400         2.310690912185
   13          0.578897070500         2.568763176821
   14          0.578897070500         0.995994353968
   15          0.578897070500        -2.954613836450
   16          0.272251988000        -1.365506899775
   17          0.272251988000        -0.529452140529
   18          0.272251988000         1.570617959743
   19          0.065000000000         0.433387588094
   20          0.065000000000         0.168038686757
   21          0.065000000000        -0.498486188171
   22          0.373860000000         0.000011764221
   23          0.373860000000        -0.000007568040
 end
-------------------------------------------
RADIAL EXPECTATION VALUES <R**-3> TO <R**3>
-------------------------------------------
   0 :     0.000000     0.991636     0.954763     1.143116     1.429703     1.959116
   1 :     0.767332     0.760544     0.829835     1.334891     1.978575     3.263824
   2 :     0.767333     0.760545     0.829835     1.334890     1.978573     3.263818
   3 :     0.768224     0.761226     0.830264     1.334013     1.975801     3.256125
   4 :     0.000000     0.160445     0.346493     3.371246    13.074727    57.042251
   5 :     0.299149     0.382569     0.570711     2.069169     5.064151    73.044099
   6 :     0.000000     0.093284     0.242821     5.349052    32.877589   218.830090
   7 :     0.000000     0.620053     0.676637     2.154300     6.999626    32.797694
   8 :     0.000000     5.153398     2.052074     0.577926     0.522118     1.221282
   9 :     0.000000    48.074802     5.614412     0.226393     0.065453     0.036208
  10 :     0.292716     0.375926     0.564663     2.101554     5.251836    77.706271
  11 :     0.292720     0.375931     0.564668     2.101518     5.251609    77.700115
  12 :     0.287078     0.370725     0.559745     2.129638     5.420313    79.804722
  13 :     0.061436     0.102069     0.273211     4.373709    21.658859   119.117462
  14 :     0.026144     0.055511     0.202521     5.851307    38.646358   281.587974
  15 :     0.026145     0.055512     0.202522     5.851277    38.646015   281.584632
  16 :     0.210360     0.287928     0.480831     2.605272     8.356788   159.458566
  17 :     0.017902     0.038416     0.159777     7.618491    64.126120   573.099170
  18 :     0.041374     0.073070     0.218502     6.231686    47.706906   413.104269
  19 :     0.041374     0.073070     0.218501     6.231710    47.707212   413.107382
  20 :     0.058411     0.099343     0.264537     4.538311    22.523433   590.213156
  21 :     9.003358     2.997880     1.368748     1.454254     4.214661    21.060526
  22 :     0.062475     0.103824     0.268925     4.511455    22.360045   586.016189
  23 :     0.062480     0.103830     0.268931     4.511419    22.359827   586.010548
  24 :     0.064499     0.106076     0.271123     4.498455    22.285169   583.439128
  25 :     0.121285     0.170303     0.336232     4.061642    19.484415   508.409389
  26 :     0.268066     0.296938     0.453508     3.181001    14.483623    90.761698
  27 :     0.268064     0.296937     0.453507     3.181007    14.483665    90.761913
  28 :     0.255318     0.284355     0.441155     3.271924    15.048511    93.267190
  29 :     0.111191     0.213641     0.446039     2.386301     6.019867   111.670581
  30 :     0.111191     0.213641     0.446039     2.386301     6.019862   111.670624
  31 :     0.111172     0.213634     0.446043     2.386149     6.018296   111.693149
  32 :     0.111172     0.213634     0.446043     2.386149     6.018296   111.693150
  33 :     0.111324     0.213725     0.446071     2.386559     6.022973   111.646954
  34 :     0.111324     0.213725     0.446071     2.386559     6.022975   111.646932
  35 :     0.111384     0.213729     0.446020     2.387531     6.031416   111.608280
  36 :     0.357346     0.396257     0.542990     2.550771     8.622676   180.652971
  37 :     0.383262     0.419939     0.561174     2.491337     8.369057   176.042272
  38 :     0.359709     0.398413     0.544644     2.545279     8.598597   180.193408
  39 :     0.359711     0.398414     0.544645     2.545278     8.598606   180.193922
  40 :     0.360842     0.399508     0.545470     2.542749     8.588651   180.034679
  41 :     9.003362     2.997879     1.368744     1.454326     4.215362    21.066603
  42 :     9.003362     2.997879     1.368744     1.454326     4.215362    21.066603
Making the total density                ... o.k.
o.k.
Initializing the integrals              ... done
Making exponents                        ... done
Making rho(0)                           ... done (         0.000010272)
Integral calculation                    ... Two index integrals                     ... done
Solving the equation system             ... done
atomic density will be written to file TaCO6_atom73.adf

-------
TIMINGS
-------

Total SCF time: 0 days 0 hours 0 min 1 sec 

Total time                  ....       1.642 sec
Sum of individual times     ....       1.257 sec  ( 76.6%)

Fock matrix formation       ....       0.458 sec  ( 27.9%)
Diagonalization             ....       0.161 sec  (  9.8%)
Density matrix formation    ....       0.000 sec  (  0.0%)
Population analysis         ....       0.000 sec  (  0.0%)
Initial guess               ....       0.000 sec  (  0.0%)
Orbital Transformation      ....       0.000 sec  (  0.0%)
Orbital Orthonormalization  ....       0.000 sec  (  0.0%)
DIIS solution               ....       0.638 sec  ( 38.9%)

Maximum memory used throughout the entire SCF-calculation: 228.8 MB

-------------------------   --------------------
FINAL SINGLE POINT ENERGY       -56.207065094700
-------------------------   --------------------


                            ***************************************
                            *     ORCA property calculations      *
                            ***************************************

                                    ---------------------
                                    Active property flags
                                    ---------------------
   (+) Dipole Moment


------------------------------------------------------------------------------
                       ORCA ELECTRIC PROPERTIES CALCULATION
------------------------------------------------------------------------------

Dipole Moment Calculation                       ... on
Quadrupole Moment Calculation                   ... off
Polarizability Calculation                      ... off
GBWName                                         ... TaCO6_atom73.gbw
Electron density                                ... TaCO6_atom73.scfp
The origin for moment calculation is the CENTER OF MASS  = ( 0.000000,  0.000000  0.000000)

-------------
DIPOLE MOMENT
-------------
                                X             Y             Z
Electronic contribution:     -0.00000      -0.00000      -0.00000
Nuclear contribution   :      0.00000       0.00000       0.00000
                        -----------------------------------------
Total Dipole Moment    :     -0.00000      -0.00000      -0.00000
                        -----------------------------------------
Magnitude (a.u.)       :      0.00000
Magnitude (Debye)      :      0.00000



--------------------
Rotational spectrum 
--------------------
 
Rotational constants in cm-1:     0.000000     0.000000     0.000000 
Rotational constants in MHz :     0.000000     0.000000     0.000000 

 Dipole components along the rotational axes: 
x,y,z [a.u.] :    -0.000000    -0.000000    -0.000000 
x,y,z [Debye]:    -0.000000    -0.000000    -0.000000 

 

Timings for individual modules:

Sum of individual times         ...        3.384 sec (=   0.056 min)
GTO integral calculation        ...        0.645 sec (=   0.011 min)  19.1 %
SCF iterations                  ...        2.739 sec (=   0.046 min)  80.9 %
                             ****ORCA TERMINATED NORMALLY****
TOTAL RUN TIME: 0 days 0 hours 0 minutes 3 seconds 690 msec
