
                                 *****************
                                 * O   R   C   A *
                                 *****************

                                            #,                                       
                                            ###                                      
                                            ####                                     
                                            #####                                    
                                            ######                                   
                                           ########,                                 
                                     ,,################,,,,,                         
                               ,,#################################,,                 
                          ,,##########################################,,             
                       ,#########################################, ''#####,          
                    ,#############################################,,   '####,        
                  ,##################################################,,,,####,       
                ,###########''''           ''''###############################       
              ,#####''   ,,,,##########,,,,          '''####'''          '####       
            ,##' ,,,,###########################,,,                        '##       
           ' ,,###''''                  '''############,,,                           
         ,,##''                                '''############,,,,        ,,,,,,###''
      ,#''                                            '''#######################'''  
     '                                                          ''''####''''         
             ,#######,   #######,   ,#######,      ##                                
            ,#'     '#,  ##    ##  ,#'     '#,    #''#        ######   ,####,        
            ##       ##  ##   ,#'  ##            #'  '#       #        #'  '#        
            ##       ##  #######   ##           ,######,      #####,   #    #        
            '#,     ,#'  ##    ##  '#,     ,#' ,#      #,         ##   #,  ,#        
             '#######'   ##     ##  '#######'  #'      '#     #####' # '####'        



                  #######################################################
                  #                        -***-                        #
                  #          Department of theory and spectroscopy      #
                  #    Directorship and core code : Frank Neese         #
                  #        Max Planck Institute fuer Kohlenforschung    #
                  #                Kaiser Wilhelm Platz 1               #
                  #                 D-45470 Muelheim/Ruhr               #
                  #                      Germany                        #
                  #                                                     #
                  #                  All rights reserved                #
                  #                        -***-                        #
                  #######################################################



                         Program Version 5.0.4 -  RELEASE  -

 With contributions from (in alphabetic order):
   Daniel Aravena         : Magnetic Suceptibility
   Michael Atanasov       : Ab Initio Ligand Field Theory (pilot matlab implementation)
   Alexander A. Auer      : GIAO ZORA, VPT2 properties, NMR spectrum
   Ute Becker             : Parallelization
   Giovanni Bistoni       : ED, misc. LED, open-shell LED, HFLD
   Martin Brehm           : Molecular dynamics
   Dmytro Bykov           : SCF Hessian
   Vijay G. Chilkuri      : MRCI spin determinant printing, contributions to CSF-ICE
   Dipayan Datta          : RHF DLPNO-CCSD density
   Achintya Kumar Dutta   : EOM-CC, STEOM-CC
   Dmitry Ganyushin       : Spin-Orbit,Spin-Spin,Magnetic field MRCI
   Miquel Garcia          : C-PCM and meta-GGA Hessian, CC/C-PCM, Gaussian charge scheme
   Yang Guo               : DLPNO-NEVPT2, F12-NEVPT2, CIM, IAO-localization
   Andreas Hansen         : Spin unrestricted coupled pair/coupled cluster methods
   Benjamin Helmich-Paris : MC-RPA, TRAH-SCF, COSX integrals
   Lee Huntington         : MR-EOM, pCC
   Robert Izsak           : Overlap fitted RIJCOSX, COSX-SCS-MP3, EOM
   Marcus Kettner         : VPT2
   Christian Kollmar      : KDIIS, OOCD, Brueckner-CCSD(T), CCSD density, CASPT2, CASPT2-K
   Simone Kossmann        : Meta GGA functionals, TD-DFT gradient, OOMP2, MP2 Hessian
   Martin Krupicka        : Initial AUTO-CI
   Lucas Lang             : DCDCAS
   Marvin Lechner         : AUTO-CI (C++ implementation), FIC-MRCC
   Dagmar Lenk            : GEPOL surface, SMD
   Dimitrios Liakos       : Extrapolation schemes; Compound Job, initial MDCI parallelization
   Dimitrios Manganas     : Further ROCIS development; embedding schemes
   Dimitrios Pantazis     : SARC Basis sets
   Anastasios Papadopoulos: AUTO-CI, single reference methods and gradients
   Taras Petrenko         : DFT Hessian,TD-DFT gradient, ASA, ECA, R-Raman, ABS, FL, XAS/XES, NRVS
   Peter Pinski           : DLPNO-MP2, DLPNO-MP2 Gradient
   Christoph Reimann      : Effective Core Potentials
   Marius Retegan         : Local ZFS, SOC
   Christoph Riplinger    : Optimizer, TS searches, QM/MM, DLPNO-CCSD(T), (RO)-DLPNO pert. Triples
   Tobias Risthaus        : Range-separated hybrids, TD-DFT gradient, RPA, STAB
   Michael Roemelt        : Original ROCIS implementation
   Masaaki Saitow         : Open-shell DLPNO-CCSD energy and density
   Barbara Sandhoefer     : DKH picture change effects
   Avijit Sen             : IP-ROCIS
   Kantharuban Sivalingam : CASSCF convergence, NEVPT2, FIC-MRCI
   Bernardo de Souza      : ESD, SOC TD-DFT
   Georgi Stoychev        : AutoAux, RI-MP2 NMR, DLPNO-MP2 response
   Willem Van den Heuvel  : Paramagnetic NMR
   Boris Wezisla          : Elementary symmetry handling
   Frank Wennmohs         : Technical directorship


 We gratefully acknowledge several colleagues who have allowed us to
 interface, adapt or use parts of their codes:
   Stefan Grimme, W. Hujo, H. Kruse, P. Pracht,  : VdW corrections, initial TS optimization,
                  C. Bannwarth, S. Ehlert          DFT functionals, gCP, sTDA/sTD-DF
   Ed Valeev, F. Pavosevic, A. Kumar             : LibInt (2-el integral package), F12 methods
   Garnet Chan, S. Sharma, J. Yang, R. Olivares  : DMRG
   Ulf Ekstrom                                   : XCFun DFT Library
   Mihaly Kallay                                 : mrcc  (arbitrary order and MRCC methods)
   Jiri Pittner, Ondrej Demel                    : Mk-CCSD
   Frank Weinhold                                : gennbo (NPA and NBO analysis)
   Christopher J. Cramer and Donald G. Truhlar   : smd solvation model
   Lars Goerigk                                  : TD-DFT with DH, B97 family of functionals
   V. Asgeirsson, H. Jonsson                     : NEB implementation
   FAccTs GmbH                                   : IRC, NEB, NEB-TS, DLPNO-Multilevel, CI-OPT
                                                   MM, QMMM, 2- and 3-layer-ONIOM, Crystal-QMMM,
                                                   LR-CPCM, SF, NACMEs, symmetry and pop. for TD-DFT,
                                                   nearIR, NL-DFT gradient (VV10), updates on ESD,
                                                   ML-optimized integration grids
   S Lehtola, MJT Oliveira, MAL Marques          : LibXC Library
   Liviu Ungur et al                             : ANISO software


 Your calculation uses the libint2 library for the computation of 2-el integrals
 For citations please refer to: http://libint.valeyev.net

 Your ORCA version has been built with support for libXC version: 5.1.0
 For citations please refer to: https://tddft.org/programs/libxc/

 This ORCA versions uses:
   CBLAS   interface :  Fast vector & matrix operations
   LAPACKE interface :  Fast linear algebra routines
   Shared memory     :  Shared parallel matrices


================================================================================

cite the ECPs for Ta [Def2-ECP] as follows:
Ce-Yb(ecp-28): M. Dolg, H. Stoll, H.Preuss, J. Chem. Phys., 1989, 90, 1730-1734.
Y-Cd(ecp-28), Hf-Hg(ecp-46): D. Andrae,U. Haeussermann, M. Dolg, H. Stoll, H. Preuss, Theor. Chim. Acta, 1990, 77, 123-141.
In-Sb(ecp-28), Tl-Bi(ecp-46): B. Metz, H. Stoll, M. Dolg, J. Chem. Phys., 2000, 113, 2563-2569.
Te-Xe(ecp-28), Po-Rn(ecp-46): K. A. Peterson, D. Figgen, E. Goll, H. Stoll, M. Dolg, J. Chem. Phys., 2003, 119, 11113-11123.
Rb(ecp-28), Cs(ecp-46): T. Leininger, A. Nicklass, W. Kuechle, H. Stoll, M. Dolg, A. Bergner, Chem. Phys. Lett., 1996, 255, 274-280.
Sr(ecp-28), Ba(ecp-46): M. Kaupp, P. V. Schleyer, H. Stoll and H. Preuss, J. Chem. Phys., 1991, 94, 1360-1366.
La(ecp-46): M. Dolg, H. Stoll, A. Savin, H. Preuss, Theor. Chim. Acta, 1989, 75, 173-194.
Lu(ecp-28): X. Cao, M. Dolg, J. Chem. Phys., 2001, 115, 7348-7355.

ECP parameters for Ta [Def2-ECP] have been obtained from:
TURBOMOLE (7.0.2)

----- Orbital basis set information -----
Your calculation utilizes the basis: def2-TZVPD
   F. Weigend and R. Ahlrichs, Phys. Chem. Chem. Phys. 7, 3297 (2005).
   D. Rappoport and F. Furche, J. Chem. Phys. 133 134105 (2010).

----- AuxJ basis set information -----
Your calculation utilizes the auxiliary basis: def2/J
   F. Weigend, Phys. Chem. Chem. Phys. 8, 1057 (2006).

================================================================================
                                        WARNINGS
                       Please study these warnings very carefully!
================================================================================


WARNING: Geometry Optimization
  ===> : Switching off AutoStart
         For restart on a previous wavefunction, please use MOREAD

INFO   : the flag for use of the SHARK integral package has been found!

================================================================================
                                       INPUT FILE
================================================================================
NAME = TaCO6-.inp
|  1> !B3LYP def2-TZVPD OPT FREQ TightSCF PAL8

|  2> 

|  3> %scf

|  4>   MaxIter 300

|  5> end

|  6> 

|  7> * xyz -1 1 

|  8> Ta         0.27389        0.93013        0.02870

|  9> C          2.48952        0.92813        0.05974

| 10> C          0.27413        3.14227        0.15631

| 11> C         -1.94181        0.93257       -0.00228

| 12> C          0.27335       -1.28214       -0.09889

| 13> O          0.27421        4.26850        0.22072

| 14> O          3.61744        0.92722        0.07540

| 15> O         -3.06965        0.93392       -0.01792

| 16> O          0.27303       -2.40821       -0.16332

| 17> C          0.30585        1.06042       -2.18307

| 18> C          0.24221        0.79935        2.24054

| 19> O          0.32231        1.12721       -3.30901

| 20> O          0.22601        0.73218        3.36636

| 21> **                         ****END OF INPUT****
================================================================================

                       *****************************
                       * Geometry Optimization Run *
                       *****************************

Geometry optimization settings:
Update method            Update   .... BFGS
Choice of coordinates    CoordSys .... Z-matrix Internals
Initial Hessian          InHess   .... Almoef's Model

Convergence Tolerances:
Energy Change            TolE     ....  5.0000e-06 Eh
Max. Gradient            TolMAXG  ....  3.0000e-04 Eh/bohr
RMS Gradient             TolRMSG  ....  1.0000e-04 Eh/bohr
Max. Displacement        TolMAXD  ....  4.0000e-03 bohr
RMS Displacement         TolRMSD  ....  2.0000e-03 bohr
Strict Convergence                ....  False
------------------------------------------------------------------------------
                        ORCA OPTIMIZATION COORDINATE SETUP
------------------------------------------------------------------------------

The optimization will be done in new redundant internal coordinates
Making redundant internal coordinates   ...  (new redundants) done
Evaluating the initial hessian          ...  (Almloef) done
Evaluating the coordinates              ...  done
Calculating the B-matrix                .... done
Calculating the G-matrix                .... done
Diagonalizing the G-matrix              .... done
The first mode is                       ....    3
The number of degrees of freedom        ....   33

    -----------------------------------------------------------------
                    Redundant Internal Coordinates


    -----------------------------------------------------------------
         Definition                    Initial Value    Approx d2E/dq
    -----------------------------------------------------------------
      1. B(C   1,Ta  0)                  2.2158         0.070000   
      2. B(C   2,Ta  0)                  2.2158         0.070008   
      3. B(C   3,Ta  0)                  2.2159         0.069983   
      4. B(C   4,Ta  0)                  2.2159         0.069975   
      5. B(O   5,C   2)                  1.1281         1.464764   
      6. B(O   6,C   1)                  1.1280         1.464986   
      7. B(O   7,C   3)                  1.1279         1.465415   
      8. B(O   8,C   4)                  1.1279         1.465617   
      9. B(C   9,Ta  0)                  2.2158         0.070004   
     10. B(C  10,Ta  0)                  2.2159         0.069980   
     11. B(O  11,C   9)                  1.1280         1.464930   
     12. B(O  12,C  10)                  1.1279         1.465474   
     13. A(C   3,Ta  0,C   9)           90.0230         0.233493   
     14. A(C   2,Ta  0,C   9)           89.9302         0.233505   
     15. A(C   1,Ta  0,C  10)           90.0149         0.233490   
     16. A(C   2,Ta  0,C  10)           90.0824         0.233494   
     17. A(C   4,Ta  0,C  10)           89.9168         0.233478   
     18. A(C   4,Ta  0,C   9)           90.0706         0.233490   
     19. A(C   2,Ta  0,C   3)           89.9894         0.233495   
     20. A(C   3,Ta  0,C   4)           90.0029         0.233480   
     21. A(C   1,Ta  0,C   2)           89.9992         0.233504   
     22. A(C   3,Ta  0,C  10)           89.9842         0.233482   
     23. A(C   1,Ta  0,C   4)           90.0085         0.233488   
     24. A(C   1,Ta  0,C   9)           89.9779         0.233501   
     25. L(Ta  0,C   1,O   6,C   9, 1) 179.9925         0.358042   
     26. L(Ta  0,C   1,O   6,C   9, 2) 179.9928         0.358042   
     27. L(Ta  0,C   2,O   5,C   9, 2) 179.9964         0.358040   
     28. L(Ta  0,C   2,O   5,C   9, 1) 179.9717         0.358040   
     29. L(Ta  0,C   3,O   7,C  10, 2) 179.9917         0.358044   
     30. L(Ta  0,C   3,O   7,C  10, 1) 179.9938         0.358044   
     31. L(Ta  0,C   4,O   8,C  10, 2) 179.9973         0.358046   
     32. L(Ta  0,C   4,O   8,C  10, 1) 179.9739         0.358046   
     33. L(Ta  0,C   9,O  11,C   2, 2) 179.9864         0.358043   
     34. L(Ta  0,C   9,O  11,C   2, 1) 179.9765         0.358043   
     35. L(Ta  0,C  10,O  12,C   4, 2) 180.0053         0.358044   
     36. L(Ta  0,C  10,O  12,C   4, 1) 179.9694         0.358044   
    -----------------------------------------------------------------

Number of atoms                         .... 13
Number of degrees of freedom            .... 36

         *************************************************************
         *                GEOMETRY OPTIMIZATION CYCLE   1            *
         *************************************************************
---------------------------------
CARTESIAN COORDINATES (ANGSTROEM)
---------------------------------
  Ta     0.273890    0.930130    0.028700
  C      2.489520    0.928130    0.059740
  C      0.274130    3.142270    0.156310
  C     -1.941810    0.932570   -0.002280
  C      0.273350   -1.282140   -0.098890
  O      0.274210    4.268500    0.220720
  O      3.617440    0.927220    0.075400
  O     -3.069650    0.933920   -0.017920
  O      0.273030   -2.408210   -0.163320
  C      0.305850    1.060420   -2.183070
  C      0.242210    0.799350    2.240540
  O      0.322310    1.127210   -3.309010
  O      0.226010    0.732180    3.366360

----------------------------
CARTESIAN COORDINATES (A.U.)
----------------------------
  NO LB      ZA    FRAG     MASS         X           Y           Z
   0 Ta   13.0000*   0   180.948    0.517577    1.757691    0.054235
   1 C     6.0000    0    12.011    4.704511    1.753912    0.112892
   2 C     6.0000    0    12.011    0.518031    5.938030    0.295383
   3 C     6.0000    0    12.011   -3.669489    1.762302   -0.004309
   4 C     6.0000    0    12.011    0.516557   -2.422893   -0.186875
   5 O     8.0000    0    15.999    0.518182    8.066296    0.417100
   6 O     8.0000    0    15.999    6.835971    1.752192    0.142485
   7 O     8.0000    0    15.999   -5.800798    1.764853   -0.033864
   8 O     8.0000    0    15.999    0.515952   -4.550857   -0.308630
   9 C     6.0000    0    12.011    0.577973    2.003903   -4.125404
  10 C     6.0000    0    12.011    0.457711    1.510553    4.234007
  11 O     8.0000    0    15.999    0.609078    2.130118   -6.253123
  12 O     8.0000    0    15.999    0.427097    1.383620    6.361498
* core charge reduced due to ECP

--------------------------------
INTERNAL COORDINATES (ANGSTROEM)
--------------------------------
 Ta     0   0   0     0.000000000000     0.00000000     0.00000000
 C      1   0   0     2.215848320283     0.00000000     0.00000000
 C      1   2   0     2.215817625460    89.99920081     0.00000000
 C      1   2   3     2.215917914545   179.98851604   355.41026516
 C      1   2   3     2.215946310857    90.00854493   180.00081865
 O      3   1   2     1.128070329102   179.97162699    95.13502279
 O      2   1   3     1.128029073251   179.99094805   304.06012416
 O      4   1   3     1.127949244292   179.99143531   313.12793118
 O      5   1   2     1.127911775007   179.97379569    94.21598319
 C      1   2   3     2.215834709224    89.97785615    89.93017691
 C      1   2   3     2.215929424959    90.01486706   269.91763624
 O     10   1   2     1.128039325245   179.97459310   292.29368827
 O     11   1   2     1.127938349955   179.96917132   262.95720684

---------------------------
INTERNAL COORDINATES (A.U.)
---------------------------
 Ta     0   0   0     0.000000000000     0.00000000     0.00000000
 C      1   0   0     4.187346479644     0.00000000     0.00000000
 C      1   2   0     4.187288474835    89.99920081     0.00000000
 C      1   2   3     4.187477993739   179.98851604   355.41026516
 C      1   2   3     4.187531654993    90.00854493   180.00081865
 O      3   1   2     2.131743981805   179.97162699    95.13502279
 O      2   1   3     2.131666019546   179.99094805   304.06012416
 O      4   1   3     2.131515164676   179.99143531   313.12793118
 O      5   1   2     2.131444357989   179.97379569    94.21598319
 C      1   2   3     4.187320758470    89.97785615    89.93017691
 C      1   2   3     4.187499745270    90.01486706   269.91763624
 O     10   1   2     2.131685393007   179.97459310   292.29368827
 O     11   1   2     2.131494577363   179.96917132   262.95720684

---------------------
BASIS SET INFORMATION
---------------------
There are 3 groups of distinct atoms

 Group   1 Type Ta  : 9s8p5d1f contracted to 6s5p3d1f pattern {411111/41111/311/1}
 Group   2 Type C   : 12s6p3d1f contracted to 6s3p3d1f pattern {621111/411/111/1}
 Group   3 Type O   : 12s7p3d1f contracted to 6s4p3d1f pattern {621111/4111/111/1}

Atom   0Ta   basis set group =>   1
Atom   1C    basis set group =>   2
Atom   2C    basis set group =>   2
Atom   3C    basis set group =>   2
Atom   4C    basis set group =>   2
Atom   5O    basis set group =>   3
Atom   6O    basis set group =>   3
Atom   7O    basis set group =>   3
Atom   8O    basis set group =>   3
Atom   9C    basis set group =>   2
Atom  10C    basis set group =>   2
Atom  11O    basis set group =>   3
Atom  12O    basis set group =>   3
---------------------------------
AUXILIARY/J BASIS SET INFORMATION
---------------------------------
There are 3 groups of distinct atoms

 Group   1 Type Ta  : 11s5p5d3f3g contracted to 8s5p5d2f3g pattern {41111111/11111/11111/21/111}
 Group   2 Type C   : 12s5p4d2f1g contracted to 6s4p3d1f1g pattern {711111/2111/211/2/1}
 Group   3 Type O   : 12s5p4d2f1g contracted to 6s4p3d1f1g pattern {711111/2111/211/2/1}

Atom   0Ta   basis set group =>   1
Atom   1C    basis set group =>   2
Atom   2C    basis set group =>   2
Atom   3C    basis set group =>   2
Atom   4C    basis set group =>   2
Atom   5O    basis set group =>   3
Atom   6O    basis set group =>   3
Atom   7O    basis set group =>   3
Atom   8O    basis set group =>   3
Atom   9C    basis set group =>   2
Atom  10C    basis set group =>   2
Atom  11O    basis set group =>   3
Atom  12O    basis set group =>   3
-------------------------
ECP PARAMETER INFORMATION
-------------------------

 Group 1, Type Ta ECP Def2-ECP (replacing 60 core electrons, lmax=3)

Atom   0Ta   ECP group =>   1



           ************************************************************
           *        Program running with 8 parallel MPI-processes     *
           *              working on a common directory               *
           ************************************************************
------------------------------------------------------------------------------
                           ORCA GTO INTEGRAL CALCULATION
                           -- RI-GTO INTEGRALS CHOSEN --
------------------------------------------------------------------------------
------------------------------------------------------------------------------
                   ___                                                        
                  /   \      - P O W E R E D   B Y -                         
                 /     \                                                     
                 |  |  |   _    _      __       _____    __    __             
                 |  |  |  | |  | |    /  \     |  _  \  |  |  /  |          
                  \  \/   | |  | |   /    \    | | | |  |  | /  /          
                 / \  \   | |__| |  /  /\  \   | |_| |  |  |/  /          
                |  |  |   |  __  | /  /__\  \  |    /   |      \           
                |  |  |   | |  | | |   __   |  |    \   |  |\   \          
                \     /   | |  | | |  |  |  |  | |\  \  |  | \   \       
                 \___/    |_|  |_| |__|  |__|  |_| \__\ |__|  \__/        
                                                                              
                      - O R C A' S   B I G   F R I E N D -                    
                                      &                                       
                       - I N T E G R A L  F E E D E R -                       
                                                                              
 v1 FN, 2020, v2 2021                                                         
------------------------------------------------------------------------------


Reading SHARK input file TaCO6-.SHARKINP.tmp ... ok
----------------------
SHARK INTEGRAL PACKAGE
----------------------

Number of atoms                             ...     13
Number of basis functions                   ...    505
Number of shells                            ...    177
Maximum angular momentum                    ...      3
Integral batch strategy                     ... SHARK/LIBINT Hybrid
RI-J (if used) integral strategy            ... SPLIT-RIJ (Revised 2003 algorithm where possible)
Printlevel                                  ...      1
Contraction scheme used                     ... SEGMENTED contraction
Coulomb Range Separation                    ... NOT USED
Exchange Range Separation                   ... NOT USED
Finite Nucleus Model                        ... NOT USED
Auxiliary Coulomb fitting basis             ... AVAILABLE
   # of basis functions in Aux-J            ...    677
   # of shells in Aux-J                     ...    203
   Maximum angular momentum in Aux-J        ...      4
Auxiliary J/K fitting basis                 ... NOT available
Auxiliary Correlation fitting basis         ... NOT available
Auxiliary 'external' fitting basis          ... NOT available
Integral threshold                          ...     2.500000e-11
Primitive cut-off                           ...     2.500000e-12
Primitive pair pre-selection threshold      ...     2.500000e-12

Calculating pre-screening integrals         ... done (  0.0 sec) Dimension = 177
Organizing shell pair data                  ... done (  0.2 sec)
Shell pair information
Total number of shell pairs                 ...     15753
Shell pairs after pre-screening             ...     13347
Total number of primitive shell pairs       ...     43350
Primitive shell pairs kept                  ...     26742
          la=0 lb=0:   2413 shell pairs
          la=1 lb=0:   3216 shell pairs
          la=1 lb=1:   1044 shell pairs
          la=2 lb=0:   2534 shell pairs
          la=2 lb=1:   1659 shell pairs
          la=2 lb=2:    693 shell pairs
          la=3 lb=0:    756 shell pairs
          la=3 lb=1:    557 shell pairs
          la=3 lb=2:    405 shell pairs
          la=3 lb=3:     70 shell pairs

Calculating one electron integrals          ... done (  0.0 sec)
Calculating ECP integrals                   ... done (  1.1 sec)
Calculating RI/J V-Matrix + Cholesky decomp.... done (  0.1 sec)
Calculating Nuclear repulsion               ... done (  0.0 sec) ENN=    711.982322470546 Eh

SHARK setup successfully completed in   1.7 seconds

Maximum memory used throughout the entire GTOINT-calculation: 25.4 MB


           ************************************************************
           *        Program running with 8 parallel MPI-processes     *
           *              working on a common directory               *
           ************************************************************
-------------------------------------------------------------------------------
                                 ORCA SCF
-------------------------------------------------------------------------------

------------
SCF SETTINGS
------------
Hamiltonian:
 Density Functional     Method          .... DFT(GTOs)
 Exchange Functional    Exchange        .... B88
   X-Alpha parameter    XAlpha          ....  0.666667
   Becke's b parameter  XBeta           ....  0.004200
 Correlation Functional Correlation     .... LYP
 LDA part of GGA corr.  LDAOpt          .... VWN-5
 Gradients option       PostSCFGGA      .... off
 Hybrid DFT is turned on
   Fraction HF Exchange ScalHFX         ....  0.200000
   Scaling of DF-GGA-X  ScalDFX         ....  0.720000
   Scaling of DF-GGA-C  ScalDFC         ....  0.810000
   Scaling of DF-LDA-C  ScalLDAC        ....  1.000000
   Perturbative correction              ....  0.000000
   Density functional embedding theory  .... OFF
   NL short-range parameter             ....  4.800000
 RI-approximation to the Coulomb term is turned on
   Number of AuxJ basis functions       .... 677
   RIJ-COSX (HFX calculated with COS-X)).... on


General Settings:
 Integral files         IntName         .... TaCO6-
 Hartree-Fock type      HFTyp           .... RHF
 Total Charge           Charge          ....   -1
 Multiplicity           Mult            ....    1
 Number of Electrons    NEL             ....   98
 Basis Dimension        Dim             ....  505
 Nuclear Repulsion      ENuc            ....    711.9823224705 Eh

Convergence Acceleration:
 DIIS                   CNVDIIS         .... on
   Start iteration      DIISMaxIt       ....    12
   Startup error        DIISStart       ....  0.200000
   # of expansion vecs  DIISMaxEq       ....     5
   Bias factor          DIISBfac        ....   1.050
   Max. coefficient     DIISMaxC        ....  10.000
 Trust-Rad. Augm. Hess. CNVTRAH         .... auto
   Auto Start mean grad. ratio tolernc. ....  1.125000
   Auto Start start iteration           ....    20
   Auto Start num. interpolation iter.  ....    10
   Max. Number of Micro iterations      ....    16
   Max. Number of Macro iterations      .... Maxiter - #DIIS iter
   Number of Davidson start vectors     ....     2
   Converg. threshold I  (grad. norm)   ....   1.000e-05
   Converg. threshold II (energy diff.) ....   1.000e-08
   Grad. Scal. Fac. for Micro threshold ....   0.100
   Minimum threshold for Micro iter.    ....   0.010
   NR start threshold (gradient norm)   ....   0.001
   Initial trust radius                 ....   0.400
   Minimum AH scaling param. (alpha)    ....   1.000
   Maximum AH scaling param. (alpha)    .... 1000.000
   Orbital update algorithm             .... Taylor
   White noise on init. David. guess    .... on
   Maximum white noise                  ....   0.010
   Quad. conv. algorithm                .... NR
 SOSCF                  CNVSOSCF        .... off
 Level Shifting         CNVShift        .... on
   Level shift para.    LevelShift      ....    0.2500
   Turn off err/grad.   ShiftErr        ....    0.0010
 Zerner damping         CNVZerner       .... off
 Static damping         CNVDamp         .... on
   Fraction old density DampFac         ....    0.7000
   Max. Damping (<1)    DampMax         ....    0.9800
   Min. Damping (>=0)   DampMin         ....    0.0000
   Turn off err/grad.   DampErr         ....    0.1000
 Fernandez-Rico         CNVRico         .... off

SCF Procedure:
 Maximum # iterations   MaxIter         ....   300
 SCF integral mode      SCFMode         .... Direct
   Integral package                     .... SHARK and LIBINT hybrid scheme
 Reset frequency        DirectResetFreq ....    20
 Integral Threshold     Thresh          ....  2.500e-11 Eh
 Primitive CutOff       TCut            ....  2.500e-12 Eh

Convergence Tolerance:
 Convergence Check Mode ConvCheckMode   .... Total+1el-Energy
 Convergence forced     ConvForced      .... 0
 Energy Change          TolE            ....  1.000e-08 Eh
 1-El. energy change                    ....  1.000e-05 Eh
 DIIS Error             TolErr          ....  5.000e-07


Diagonalization of the overlap matrix:
Smallest eigenvalue                        ... 8.319e-06
Time for diagonalization                   ...    0.070 sec
Threshold for overlap eigenvalues          ... 1.000e-08
Number of eigenvalues below threshold      ... 0
Time for construction of square roots      ...    0.120 sec
Total time needed                          ...    0.191 sec

Time for model grid setup =    0.159 sec

------------------------------
INITIAL GUESS: MODEL POTENTIAL
------------------------------
Loading Hartree-Fock densities                     ... done
  calling C:\orca_5_0_4\orca TaCO6-_atom73.inp > TaCO6-_atom73.out in order to generate an atomic fitting density for atom 0 (Ta with ECP) on-the-fly... 
    atom 0 (Ta), assumed electronic state with S=4: 1s2 2s2 2p6 3s2 3p6 4s2 3d10 4p6 5s2 4d10 5p6 6s2 4f14 5d3           ... done
Calculating cut-offs                               ... done
Initializing the effective Hamiltonian             ... done
Setting up the integral package (SHARK)            ... done
Starting the Coulomb interaction                   ... done (   0.2 sec)
Reading the grid                                   ... done
Mapping shells                                     ... done
Starting the XC term evaluation                    ... done (   0.2 sec)
  promolecular density results
     # of electrons  =    157.003646095
     EX              =   -398.172728214
     EC              =     -6.920238422
     EX+EC           =   -405.092966636
Transforming the Hamiltonian                       ... done (   0.1 sec)
Diagonalizing the Hamiltonian                      ... done (   0.1 sec)
Back transforming the eigenvectors                 ... done (   0.0 sec)
Now organizing SCF variables                       ... done
                      ------------------
                      INITIAL GUESS DONE (   4.1 sec)
                      ------------------
-------------------
DFT GRID GENERATION
-------------------

General Integration Accuracy     IntAcc      ... 4.388
Radial Grid Type                 RadialGrid  ... OptM3 with GC (2021)
Angular Grid (max. ang.)         AngularGrid ... 4 (Lebedev-302)
Angular grid pruning method      GridPruning ... 4 (adaptive)
Weight generation scheme         WeightScheme... Becke
Basis function cutoff            BFCut       ... 1.0000e-11
Integration weight cutoff        WCut        ... 1.0000e-14
Angular grids for H and He will be reduced by one unit
Partially contracted basis set               ... off
Rotationally invariant grid construction     ... off

Total number of grid points                  ...    87795
Total number of batches                      ...     1377
Average number of points per batch           ...       63
Average number of grid points per atom       ...     6753
Time for grid setup =    0.624 sec

--------------------
COSX GRID GENERATION
--------------------

GRIDX 1
-------
General Integration Accuracy     IntAcc      ... 3.816
Radial Grid Type                 RadialGrid  ... OptM3 with GC (2021)
Angular Grid (max. ang.)         AngularGrid ... 1 (Lebedev-50)
Angular grid pruning method      GridPruning ... 4 (adaptive)
Weight generation scheme         WeightScheme... Becke
Basis function cutoff            BFCut       ... 1.0000e-11
Integration weight cutoff        WCut        ... 1.0000e-14
Angular grids for H and He will be reduced by one unit
Partially contracted basis set               ... on
Rotationally invariant grid construction     ... off

Total number of grid points                  ...    10822
Total number of batches                      ...      174
Average number of points per batch           ...       62
Average number of grid points per atom       ...      832
UseSFitting                                  ... on

GRIDX 2
-------
General Integration Accuracy     IntAcc      ... 4.020
Radial Grid Type                 RadialGrid  ... OptM3 with GC (2021)
Angular Grid (max. ang.)         AngularGrid ... 2 (Lebedev-110)
Angular grid pruning method      GridPruning ... 4 (adaptive)
Weight generation scheme         WeightScheme... Becke
Basis function cutoff            BFCut       ... 1.0000e-11
Integration weight cutoff        WCut        ... 1.0000e-14
Angular grids for H and He will be reduced by one unit
Partially contracted basis set               ... on
Rotationally invariant grid construction     ... off

Total number of grid points                  ...    30001
Total number of batches                      ...      472
Average number of points per batch           ...       63
Average number of grid points per atom       ...     2308
UseSFitting                                  ... on

GRIDX 3
-------
General Integration Accuracy     IntAcc      ... 4.338
Radial Grid Type                 RadialGrid  ... OptM3 with GC (2021)
Angular Grid (max. ang.)         AngularGrid ... 3 (Lebedev-194)
Angular grid pruning method      GridPruning ... 4 (adaptive)
Weight generation scheme         WeightScheme... Becke
Basis function cutoff            BFCut       ... 1.0000e-11
Integration weight cutoff        WCut        ... 1.0000e-14
Angular grids for H and He will be reduced by one unit
Partially contracted basis set               ... on
Rotationally invariant grid construction     ... off

Total number of grid points                  ...    63355
Total number of batches                      ...      997
Average number of points per batch           ...       63
Average number of grid points per atom       ...     4873
UseSFitting                                  ... on

Time for X-Grid setup             =    1.825 sec

--------------
SCF ITERATIONS
--------------
ITER       Energy         Delta-E        Max-DP      RMS-DP      [F,P]     Damp
               ***  Starting incremental Fock matrix formation  ***
  0   -735.9120049729   0.000000000000 0.42060415  0.00202459  0.6009964 0.7000
  1   -736.5729681555  -0.660963182563 0.25392247  0.00132813  0.2785650 0.7000
                               ***Turning on DIIS***
  2   -736.7680792895  -0.195111134002 0.13058460  0.00072703  0.1718324 0.7000
  3   -736.8568715816  -0.088792292152 0.08593281  0.00045470  0.1105855 0.7000
  4   -736.9320937881  -0.075222206411 0.21211134  0.00104886  0.0753369 0.0000
  5   -737.1160135718  -0.183919783756 0.01558578  0.00015524  0.0102184 0.0000
  6   -737.1168979353  -0.000884363463 0.00881167  0.00006467  0.0050261 0.0000
  7   -737.1171565109  -0.000258575594 0.00407416  0.00003249  0.0013557 0.0000
  8   -737.1171852157  -0.000028704855 0.00323942  0.00002004  0.0007206 0.0000
               *** Restarting incremental Fock matrix formation ***
                                   *** Resetting DIIS ***
  9   -737.1172757494  -0.000090533669 0.00235070  0.00003397  0.0003041 0.0000
 10   -737.1172747536   0.000000995759 0.00053729  0.00000286  0.0006059 0.0000
 11   -737.1172761176  -0.000001363931 0.00019731  0.00000142  0.0000718 0.0000
 12   -737.1172761165   0.000000001078 0.00015450  0.00000202  0.0000649 0.0000
 13   -737.1172761751  -0.000000058650 0.00024775  0.00000215  0.0000095 0.0000
 14   -737.1172761685   0.000000006597 0.00021594  0.00000206  0.0000024 0.0000
                            ***DIIS convergence achieved***

               *****************************************************
               *                     SUCCESS                       *
               *           SCF CONVERGED AFTER  15 CYCLES          *
               *****************************************************

Old exchange energy                            =    -17.269106495 Eh
New exchange energy                            =    -17.269074943 Eh
Exchange energy change after final integration =      0.000031552 Eh
Total energy after final integration           =   -737.117244606 Eh
Final COS-X integration done in                =    10.804 sec

----------------
TOTAL SCF ENERGY
----------------

Total Energy       :         -737.11724461 Eh          -20057.97995 eV

Components:
Nuclear Repulsion  :          711.98232247 Eh           19374.02395 eV
Electronic Energy  :        -1449.09956708 Eh          -39432.00390 eV
One Electron Energy:        -2454.69865300 Eh          -66795.74618 eV
Two Electron Energy:         1005.59908592 Eh           27363.74227 eV
Max COSX asymmetry :            0.00000091 Eh               0.00002 eV

Virial components:
Potential Energy   :        -1434.61426763 Eh          -39037.83887 eV
Kinetic Energy     :          697.49702303 Eh           18979.85891 eV
Virial Ratio       :            2.05680343


DFT components:
N(Alpha)           :       49.000065581078 electrons
N(Beta)            :       49.000065581078 electrons
N(Total)           :       98.000131162155 electrons
E(X)               :      -69.116473616681 Eh       
E(C)               :       -4.019002592010 Eh       
E(XC)              :      -73.135476208691 Eh       
DFET-embed. en.    :        0.000000000000 Eh       

---------------
SCF CONVERGENCE
---------------

  Last Energy change         ...    1.0928e-08  Tolerance :   1.0000e-08
  Last MAX-Density change    ...    0.0000e+00  Tolerance :   1.0000e-07
  Last RMS-Density change    ...    0.0000e+00  Tolerance :   5.0000e-09
  Last DIIS Error            ...    9.1343e-07  Tolerance :   5.0000e-07

             **** THE GBW FILE WAS UPDATED (TaCO6-.gbw) ****
             **** DENSITY TaCO6-.scfp WAS UPDATED ****
             **** ENERGY FILE WAS UPDATED (TaCO6-.en.tmp) ****
             **** THE GBW FILE WAS UPDATED (TaCO6-.gbw) ****
             **** DENSITY TaCO6-.scfp WAS UPDATED ****
----------------
ORBITAL ENERGIES
----------------

  NO   OCC          E(Eh)            E(eV) 
   0   2.0000     -19.056070      -518.5420 
   1   2.0000     -19.056062      -518.5418 
   2   2.0000     -19.056060      -518.5418 
   3   2.0000     -19.056033      -518.5410 
   4   2.0000     -19.056026      -518.5408 
   5   2.0000     -19.056017      -518.5406 
   6   2.0000     -10.127458      -275.5821 
   7   2.0000     -10.127457      -275.5821 
   8   2.0000     -10.127456      -275.5821 
   9   2.0000     -10.127451      -275.5820 
  10   2.0000     -10.127447      -275.5818 
  11   2.0000     -10.127446      -275.5818 
  12   2.0000      -2.513200       -68.3877 
  13   2.0000      -1.259730       -34.2790 
  14   2.0000      -1.259714       -34.2786 
  15   2.0000      -1.259697       -34.2781 
  16   2.0000      -1.001082       -27.2408 
  17   2.0000      -1.000744       -27.2316 
  18   2.0000      -1.000728       -27.2312 
  19   2.0000      -1.000699       -27.2304 
  20   2.0000      -1.000630       -27.2285 
  21   2.0000      -1.000607       -27.2279 
  22   2.0000      -0.435253       -11.8438 
  23   2.0000      -0.420283       -11.4365 
  24   2.0000      -0.420282       -11.4364 
  25   2.0000      -0.418805       -11.3963 
  26   2.0000      -0.418794       -11.3960 
  27   2.0000      -0.418781       -11.3956 
  28   2.0000      -0.335057        -9.1174 
  29   2.0000      -0.326153        -8.8751 
  30   2.0000      -0.326143        -8.8748 
  31   2.0000      -0.326135        -8.8746 
  32   2.0000      -0.321891        -8.7591 
  33   2.0000      -0.321873        -8.7586 
  34   2.0000      -0.321856        -8.7582 
  35   2.0000      -0.318139        -8.6570 
  36   2.0000      -0.318124        -8.6566 
  37   2.0000      -0.318112        -8.6563 
  38   2.0000      -0.314812        -8.5665 
  39   2.0000      -0.314811        -8.5664 
  40   2.0000      -0.314810        -8.5664 
  41   2.0000      -0.286054        -7.7839 
  42   2.0000      -0.286053        -7.7839 
  43   2.0000      -0.250751        -6.8233 
  44   2.0000      -0.250683        -6.8214 
  45   2.0000      -0.250611        -6.8195 
  46   2.0000      -0.037344        -1.0162 
  47   2.0000      -0.037293        -1.0148 
  48   2.0000      -0.037268        -1.0141 
  49   0.0000       0.092518         2.5175 
  50   0.0000       0.092535         2.5180 
  51   0.0000       0.092557         2.5186 
  52   0.0000       0.111454         3.0328 
  53   0.0000       0.117616         3.2005 
  54   0.0000       0.117684         3.2024 
  55   0.0000       0.117754         3.2042 
  56   0.0000       0.126473         3.4415 
  57   0.0000       0.126492         3.4420 
  58   0.0000       0.126512         3.4426 
  59   0.0000       0.140399         3.8205 
  60   0.0000       0.140400         3.8205 
  61   0.0000       0.155249         4.2245 
  62   0.0000       0.155254         4.2247 
  63   0.0000       0.155255         4.2247 
  64   0.0000       0.164111         4.4657 
  65   0.0000       0.164125         4.4661 
  66   0.0000       0.164136         4.4664 
  67   0.0000       0.173140         4.7114 
  68   0.0000       0.173166         4.7121 
  69   0.0000       0.173184         4.7126 
  70   0.0000       0.189838         5.1657 
  71   0.0000       0.196179         5.3383 
  72   0.0000       0.196204         5.3390 
  73   0.0000       0.196231         5.3397 
  74   0.0000       0.225854         6.1458 
  75   0.0000       0.225866         6.1461 
  76   0.0000       0.225875         6.1464 
  77   0.0000       0.228454         6.2165 
  78   0.0000       0.228481         6.2173 
  79   0.0000       0.228646         6.2218 
  80   0.0000       0.228647         6.2218 
  81   0.0000       0.228665         6.2223 
  82   0.0000       0.250072         6.8048 
  83   0.0000       0.250130         6.8064 
  84   0.0000       0.250175         6.8076 
  85   0.0000       0.264219         7.1898 
  86   0.0000       0.264233         7.1901 
  87   0.0000       0.264243         7.1904 
  88   0.0000       0.270154         7.3513 
  89   0.0000       0.275062         7.4848 
  90   0.0000       0.275071         7.4851 
  91   0.0000       0.301523         8.2049 
  92   0.0000       0.332755         9.0547 
  93   0.0000       0.332762         9.0549 
  94   0.0000       0.342210         9.3120 
  95   0.0000       0.342213         9.3121 
  96   0.0000       0.342220         9.3123 
  97   0.0000       0.350130         9.5275 
  98   0.0000       0.350187         9.5291 
  99   0.0000       0.350227         9.5302 
 100   0.0000       0.362305         9.8588 
 101   0.0000       0.364035         9.9059 
 102   0.0000       0.364071         9.9069 
 103   0.0000       0.364117         9.9081 
 104   0.0000       0.395294        10.7565 
 105   0.0000       0.395396        10.7593 
 106   0.0000       0.395480        10.7616 
 107   0.0000       0.404863        11.0169 
 108   0.0000       0.404886        11.0175 
 109   0.0000       0.404975        11.0199 
 110   0.0000       0.406365        11.0578 
 111   0.0000       0.406380        11.0582 
 112   0.0000       0.411079        11.1860 
 113   0.0000       0.435785        11.8583 
 114   0.0000       0.435803        11.8588 
 115   0.0000       0.459557        12.5052 
 116   0.0000       0.459572        12.5056 
 117   0.0000       0.459573        12.5056 
 118   0.0000       0.461564        12.5598 
 119   0.0000       0.461675        12.5628 
 120   0.0000       0.461774        12.5655 
 121   0.0000       0.463023        12.5995 
 122   0.0000       0.463117        12.6021 
 123   0.0000       0.463206        12.6045 
 124   0.0000       0.465353        12.6629 
 125   0.0000       0.465360        12.6631 
 126   0.0000       0.499203        13.5840 
 127   0.0000       0.521324        14.1859 
 128   0.0000       0.528990        14.3946 
 129   0.0000       0.529261        14.4019 
 130   0.0000       0.529577        14.4105 
 131   0.0000       0.557777        15.1779 
 132   0.0000       0.557787        15.1782 
 133   0.0000       0.557805        15.1786 
 134   0.0000       0.578299        15.7363 
 135   0.0000       0.578426        15.7398 
 136   0.0000       0.578541        15.7429 
 137   0.0000       0.612201        16.6588 
 138   0.0000       0.612215        16.6592 
 139   0.0000       0.612244        16.6600 
 140   0.0000       0.612520        16.6675 
 141   0.0000       0.630259        17.1502 
 142   0.0000       0.637921        17.3587 
 143   0.0000       0.638125        17.3643 
 144   0.0000       0.638306        17.3692 
 145   0.0000       0.658731        17.9250 
 146   0.0000       0.658736        17.9251 
 147   0.0000       0.658763        17.9259 
 148   0.0000       0.663322        18.0499 
 149   0.0000       0.663470        18.0539 
 150   0.0000       0.663732        18.0611 
 151   0.0000       0.676161        18.3993 
 152   0.0000       0.676178        18.3997 
 153   0.0000       0.682398        18.5690 
 154   0.0000       0.682578        18.5739 
 155   0.0000       0.682594        18.5743 
 156   0.0000       0.682839        18.5810 
 157   0.0000       0.683012        18.5857 
 158   0.0000       0.686958        18.6931 
 159   0.0000       0.689239        18.7551 
 160   0.0000       0.689420        18.7601 
 161   0.0000       0.689454        18.7610 
 162   0.0000       0.707858        19.2618 
 163   0.0000       0.707872        19.2622 
 164   0.0000       0.707921        19.2635 
 165   0.0000       0.785925        21.3861 
 166   0.0000       0.785974        21.3874 
 167   0.0000       0.787459        21.4278 
 168   0.0000       0.787498        21.4289 
 169   0.0000       0.793052        21.5801 
 170   0.0000       0.793119        21.5819 
 171   0.0000       0.793246        21.5853 
 172   0.0000       0.811037        22.0694 
 173   0.0000       0.811046        22.0697 
 174   0.0000       0.811052        22.0698 
 175   0.0000       0.811227        22.0746 
 176   0.0000       0.811255        22.0754 
 177   0.0000       0.811283        22.0761 
 178   0.0000       0.826857        22.4999 
 179   0.0000       0.826875        22.5004 
 180   0.0000       0.831194        22.6179 
 181   0.0000       0.831541        22.6274 
 182   0.0000       0.831910        22.6374 
 183   0.0000       0.871569        23.7166 
 184   0.0000       0.871641        23.7185 
 185   0.0000       0.871690        23.7199 
 186   0.0000       0.872458        23.7408 
 187   0.0000       0.896399        24.3923 
 188   0.0000       0.902807        24.5666 
 189   0.0000       0.902927        24.5699 
 190   0.0000       0.908681        24.7265 
 191   0.0000       0.908697        24.7269 
 192   0.0000       0.908760        24.7286 
 193   0.0000       0.961545        26.1650 
 194   0.0000       0.961565        26.1655 
 195   0.0000       0.975326        26.5400 
 196   0.0000       0.993167        27.0255 
 197   0.0000       0.993219        27.0269 
 198   0.0000       0.993254        27.0278 
 199   0.0000       0.996775        27.1236 
 200   0.0000       0.996786        27.1239 
 201   0.0000       0.997743        27.1500 
 202   0.0000       1.010574        27.4991 
 203   0.0000       1.010714        27.5029 
 204   0.0000       1.010770        27.5045 
 205   0.0000       1.010870        27.5072 
 206   0.0000       1.029016        28.0009 
 207   0.0000       1.029259        28.0076 
 208   0.0000       1.029494        28.0140 
 209   0.0000       1.052013        28.6267 
 210   0.0000       1.052016        28.6268 
 211   0.0000       1.052028        28.6271 
 212   0.0000       1.053602        28.6700 
 213   0.0000       1.071778        29.1646 
 214   0.0000       1.071897        29.1678 
 215   0.0000       1.072015        29.1710 
 216   0.0000       1.093489        29.7554 
 217   0.0000       1.093524        29.7563 
 218   0.0000       1.093540        29.7567 
 219   0.0000       1.107284        30.1307 
 220   0.0000       1.107421        30.1345 
 221   0.0000       1.107568        30.1385 
 222   0.0000       1.142794        31.0970 
 223   0.0000       1.142891        31.0996 
 224   0.0000       1.143066        31.1044 
 225   0.0000       1.172065        31.8935 
 226   0.0000       1.172231        31.8980 
 227   0.0000       1.234821        33.6012 
 228   0.0000       1.235544        33.6209 
 229   0.0000       1.235572        33.6216 
 230   0.0000       1.235578        33.6218 
 231   0.0000       1.260942        34.3120 
 232   0.0000       1.261449        34.3258 
 233   0.0000       1.261898        34.3380 
 234   0.0000       1.306892        35.5623 
 235   0.0000       1.307381        35.5757 
 236   0.0000       1.307856        35.5886 
 237   0.0000       1.339214        36.4419 
 238   0.0000       1.339258        36.4431 
 239   0.0000       1.339307        36.4444 
 240   0.0000       1.404993        38.2318 
 241   0.0000       1.405078        38.2341 
 242   0.0000       1.405191        38.2372 
 243   0.0000       1.420463        38.6528 
 244   0.0000       1.439040        39.1583 
 245   0.0000       1.439097        39.1598 
 246   0.0000       1.490247        40.5517 
 247   0.0000       1.490471        40.5578 
 248   0.0000       1.572375        42.7865 
 249   0.0000       1.572437        42.7882 
 250   0.0000       1.572498        42.7898 
 251   0.0000       1.575574        42.8736 
 252   0.0000       1.575596        42.8742 
 253   0.0000       1.575611        42.8746 
 254   0.0000       1.750144        47.6238 
 255   0.0000       1.750175        47.6247 
 256   0.0000       1.759675        47.8832 
 257   0.0000       1.759891        47.8891 
 258   0.0000       1.760111        47.8951 
 259   0.0000       1.851693        50.3871 
 260   0.0000       1.851702        50.3874 
 261   0.0000       1.851728        50.3881 
 262   0.0000       1.859790        50.6075 
 263   0.0000       1.859988        50.6128 
 264   0.0000       1.860199        50.6186 
 265   0.0000       1.875205        51.0269 
 266   0.0000       1.875335        51.0304 
 267   0.0000       1.875472        51.0342 
 268   0.0000       1.908280        51.9269 
 269   0.0000       1.908546        51.9342 
 270   0.0000       1.908809        51.9413 
 271   0.0000       1.911314        52.0095 
 272   0.0000       1.911410        52.0121 
 273   0.0000       1.918181        52.1964 
 274   0.0000       1.918185        52.1965 
 275   0.0000       1.918751        52.2119 
 276   0.0000       1.927512        52.4503 
 277   0.0000       1.973890        53.7123 
 278   0.0000       1.974371        53.7254 
 279   0.0000       1.974808        53.7372 
 280   0.0000       1.995811        54.3088 
 281   0.0000       2.010745        54.7152 
 282   0.0000       2.011088        54.7245 
 283   0.0000       2.011478        54.7351 
 284   0.0000       2.016163        54.8626 
 285   0.0000       2.029604        55.2283 
 286   0.0000       2.029703        55.2310 
 287   0.0000       2.029802        55.2337 
 288   0.0000       2.103295        57.2336 
 289   0.0000       2.103354        57.2352 
 290   0.0000       2.123065        57.7715 
 291   0.0000       2.123160        57.7741 
 292   0.0000       2.137723        58.1704 
 293   0.0000       2.138410        58.1891 
 294   0.0000       2.139256        58.2121 
 295   0.0000       2.256392        61.3995 
 296   0.0000       2.256396        61.3997 
 297   0.0000       2.256430        61.4006 
 298   0.0000       2.326245        63.3004 
 299   0.0000       2.326270        63.3010 
 300   0.0000       2.326295        63.3017 
 301   0.0000       2.355624        64.0998 
 302   0.0000       2.355743        64.1030 
 303   0.0000       2.355864        64.1063 
 304   0.0000       2.367639        64.4267 
 305   0.0000       2.367781        64.4306 
 306   0.0000       2.367922        64.4344 
 307   0.0000       2.389331        65.0170 
 308   0.0000       2.532807        68.9212 
 309   0.0000       2.560126        69.6646 
 310   0.0000       2.560249        69.6679 
 311   0.0000       2.560390        69.6718 
 312   0.0000       2.566281        69.8320 
 313   0.0000       2.566309        69.8328 
 314   0.0000       2.673502        72.7497 
 315   0.0000       2.673542        72.7508 
 316   0.0000       2.754455        74.9525 
 317   0.0000       2.754478        74.9532 
 318   0.0000       2.754492        74.9535 
 319   0.0000       2.762592        75.1739 
 320   0.0000       2.804686        76.3194 
 321   0.0000       2.804691        76.3195 
 322   0.0000       2.804707        76.3200 
 323   0.0000       2.836887        77.1956 
 324   0.0000       2.837009        77.1990 
 325   0.0000       2.837106        77.2016 
 326   0.0000       2.839848        77.2762 
 327   0.0000       2.839983        77.2799 
 328   0.0000       2.840097        77.2830 
 329   0.0000       2.902490        78.9808 
 330   0.0000       2.902564        78.9828 
 331   0.0000       2.902632        78.9846 
 332   0.0000       2.975198        80.9593 
 333   0.0000       2.975257        80.9609 
 334   0.0000       2.975343        80.9632 
 335   0.0000       2.975686        80.9725 
 336   0.0000       2.975700        80.9729 
 337   0.0000       3.014267        82.0224 
 338   0.0000       3.046384        82.8963 
 339   0.0000       3.046410        82.8970 
 340   0.0000       3.046414        82.8971 
 341   0.0000       3.071280        83.5738 
 342   0.0000       3.071290        83.5741 
 343   0.0000       3.071332        83.5752 
 344   0.0000       3.078556        83.7718 
 345   0.0000       3.102260        84.4168 
 346   0.0000       3.102538        84.4244 
 347   0.0000       3.102792        84.4313 
 348   0.0000       3.128000        85.1172 
 349   0.0000       3.128222        85.1233 
 350   0.0000       3.128494        85.1307 
 351   0.0000       3.165004        86.1241 
 352   0.0000       3.165071        86.1260 
 353   0.0000       3.165137        86.1278 
 354   0.0000       3.194838        86.9360 
 355   0.0000       3.227798        87.8329 
 356   0.0000       3.227813        87.8333 
 357   0.0000       3.239123        88.1410 
 358   0.0000       3.239171        88.1423 
 359   0.0000       3.239231        88.1440 
 360   0.0000       3.256341        88.6095 
 361   0.0000       3.256349        88.6098 
 362   0.0000       3.290999        89.5526 
 363   0.0000       3.291285        89.5604 
 364   0.0000       3.291387        89.5632 
 365   0.0000       3.291550        89.5676 
 366   0.0000       3.354406        91.2780 
 367   0.0000       3.354580        91.2828 
 368   0.0000       3.354776        91.2881 
 369   0.0000       3.386062        92.1394 
 370   0.0000       3.386610        92.1543 
 371   0.0000       3.387139        92.1687 
 372   0.0000       3.387221        92.1710 
 373   0.0000       3.387736        92.1850 
 374   0.0000       3.388261        92.1993 
 375   0.0000       3.438564        93.5681 
 376   0.0000       3.438569        93.5682 
 377   0.0000       3.438574        93.5684 
 378   0.0000       3.502104        95.2971 
 379   0.0000       3.502194        95.2995 
 380   0.0000       3.502330        95.3032 
 381   0.0000       3.553622        96.6990 
 382   0.0000       3.553634        96.6993 
 383   0.0000       3.584809        97.5476 
 384   0.0000       3.634993        98.9132 
 385   0.0000       3.635093        98.9159 
 386   0.0000       3.635209        98.9191 
 387   0.0000       3.637006        98.9680 
 388   0.0000       3.637070        98.9697 
 389   0.0000       3.730232       101.5048 
 390   0.0000       3.750743       102.0629 
 391   0.0000       3.750789       102.0642 
 392   0.0000       3.806570       103.5820 
 393   0.0000       3.806596       103.5827 
 394   0.0000       3.806601       103.5829 
 395   0.0000       3.905379       106.2708 
 396   0.0000       3.905600       106.2768 
 397   0.0000       3.905821       106.2828 
 398   0.0000       3.909852       106.3925 
 399   0.0000       3.910234       106.4029 
 400   0.0000       3.910657       106.4144 
 401   0.0000       3.920665       106.6867 
 402   0.0000       3.920839       106.6915 
 403   0.0000       3.920959       106.6947 
 404   0.0000       4.292368       116.8013 
 405   0.0000       4.420743       120.2945 
 406   0.0000       4.420765       120.2951 
 407   0.0000       4.519146       122.9722 
 408   0.0000       4.519411       122.9794 
 409   0.0000       4.519700       122.9873 
 410   0.0000       4.561133       124.1147 
 411   0.0000       4.625023       125.8533 
 412   0.0000       4.625053       125.8541 
 413   0.0000       4.716988       128.3558 
 414   0.0000       4.717075       128.3581 
 415   0.0000       4.717179       128.3610 
 416   0.0000       5.236808       142.5008 
 417   0.0000       5.236810       142.5008 
 418   0.0000       5.236817       142.5010 
 419   0.0000       5.236901       142.5033 
 420   0.0000       5.236904       142.5034 
 421   0.0000       5.236907       142.5035 
 422   0.0000       5.237117       142.5092 
 423   0.0000       5.237121       142.5093 
 424   0.0000       5.237123       142.5094 
 425   0.0000       5.237816       142.5282 
 426   0.0000       5.237819       142.5283 
 427   0.0000       5.237828       142.5285 
 428   0.0000       5.657042       153.9359 
 429   0.0000       5.657044       153.9360 
 430   0.0000       5.660808       154.0384 
 431   0.0000       5.660902       154.0410 
 432   0.0000       5.660923       154.0415 
 433   0.0000       5.660946       154.0422 
 434   0.0000       5.664138       154.1290 
 435   0.0000       5.664151       154.1294 
 436   0.0000       5.664178       154.1301 
 437   0.0000       5.672052       154.3444 
 438   0.0000       5.688879       154.8023 
 439   0.0000       5.688886       154.8025 
 440   0.0000       6.367304       173.2632 
 441   0.0000       6.367305       173.2632 
 442   0.0000       6.367307       173.2632 
 443   0.0000       6.442331       175.3048 
 444   0.0000       6.442357       175.3055 
 445   0.0000       6.442379       175.3061 
 446   0.0000       6.448613       175.4757 
 447   0.0000       6.448668       175.4772 
 448   0.0000       6.448720       175.4786 
 449   0.0000       6.458424       175.7426 
 450   0.0000       6.458563       175.7464 
 451   0.0000       6.458696       175.7500 
 452   0.0000       6.538820       177.9303 
 453   0.0000       6.538921       177.9331 
 454   0.0000       6.539036       177.9362 
 455   0.0000       6.544712       178.0907 
 456   0.0000       6.566928       178.6952 
 457   0.0000       6.566932       178.6953 
 458   0.0000       6.570917       178.8037 
 459   0.0000       6.571145       178.8100 
 460   0.0000       6.571370       178.8161 
 461   0.0000       6.589780       179.3170 
 462   0.0000       6.589781       179.3171 
 463   0.0000       6.621175       180.1713 
 464   0.0000       6.758638       183.9119 
 465   0.0000       6.777517       184.4256 
 466   0.0000       6.777523       184.4258 
 467   0.0000       6.801737       185.0847 
 468   0.0000       6.801772       185.0856 
 469   0.0000       6.801811       185.0867 
 470   0.0000       6.950148       189.1231 
 471   0.0000       6.950434       189.1309 
 472   0.0000       6.950730       189.1390 
 473   0.0000       6.976327       189.8355 
 474   0.0000       6.976356       189.8363 
 475   0.0000       6.976370       189.8367 
 476   0.0000       6.990123       190.2109 
 477   0.0000       6.990127       190.2110 
 478   0.0000       6.990139       190.2114 
 479   0.0000       7.004625       190.6055 
 480   0.0000       7.004656       190.6064 
 481   0.0000       7.004681       190.6071 
 482   0.0000       7.325421       199.3348 
 483   0.0000       7.325485       199.3366 
 484   0.0000       7.325562       199.3387 
 485   0.0000       7.336006       199.6229 
 486   0.0000       7.336010       199.6230 
 487   0.0000       7.351077       200.0330 
 488   0.0000      23.045194       627.0916 
 489   0.0000      23.048686       627.1866 
 490   0.0000      23.048697       627.1869 
 491   0.0000      23.161077       630.2450 
 492   0.0000      23.161872       630.2666 
 493   0.0000      23.162633       630.2873 
 494   0.0000      44.220692      1203.3062 
 495   0.0000      44.221144      1203.3185 
 496   0.0000      44.221603      1203.3310 
 497   0.0000      44.302040      1205.5198 
 498   0.0000      44.389426      1207.8977 
 499   0.0000      44.389436      1207.8980 
 500   0.0000      46.985161      1278.5312 
 501   0.0000      46.993859      1278.7679 
 502   0.0000      47.002439      1279.0014 
 503   0.0000      79.352603      2159.2941 
 504   0.0000     676.757188     18415.4993 

                    ********************************
                    * MULLIKEN POPULATION ANALYSIS *
                    ********************************

-----------------------
MULLIKEN ATOMIC CHARGES
-----------------------
   0 Ta:    1.327371
   1 C :   -0.029566
   2 C :   -0.030776
   3 C :   -0.029778
   4 C :   -0.031079
   5 O :   -0.357682
   6 O :   -0.357457
   7 O :   -0.357138
   8 O :   -0.357179
   9 C :   -0.030892
  10 C :   -0.031006
  11 O :   -0.357535
  12 O :   -0.357283
Sum of atomic charges:   -1.0000000

--------------------------------
MULLIKEN REDUCED ORBITAL CHARGES
--------------------------------
  0 Tas       :     2.424619  s :     2.424619
      pz      :     2.023331  p :     6.069406
      px      :     2.022750
      py      :     2.023325
      dz2     :     0.146128  d :     3.115700
      dxz     :     0.946173
      dyz     :     0.935252
      dx2y2   :     0.141184
      dxy     :     0.946963
      f0      :     0.019251  f :     0.062903
      f+1     :     0.008223
      f-1     :     0.008356
      f+2     :     0.001700
      f-2     :     0.000021
      f+3     :     0.012725
      f-3     :     0.012627
  1 C s       :     3.645407  s :     3.645407
      pz      :     0.663002  p :     2.228768
      px      :     0.902843
      py      :     0.662923
      dz2     :     0.005387  d :     0.139406
      dxz     :     0.060065
      dyz     :     0.006447
      dx2y2   :     0.007414
      dxy     :     0.060094
      f0      :     0.002091  f :     0.015984
      f+1     :     0.001810
      f-1     :     0.000347
      f+2     :     0.003471
      f-2     :     0.000066
      f+3     :     0.002984
      f-3     :     0.005216
  2 C s       :     3.646139  s :     3.646139
      pz      :     0.663643  p :     2.229443
      px      :     0.662969
      py      :     0.902831
      dz2     :     0.005872  d :     0.139212
      dxz     :     0.006593
      dyz     :     0.059256
      dx2y2   :     0.007571
      dxy     :     0.059919
      f0      :     0.002053  f :     0.015983
      f+1     :     0.000337
      f-1     :     0.001879
      f+2     :     0.003450
      f-2     :     0.000108
      f+3     :     0.005184
      f-3     :     0.002972
  3 C s       :     3.645394  s :     3.645394
      pz      :     0.662969  p :     2.228998
      px      :     0.903130
      py      :     0.662899
      dz2     :     0.005381  d :     0.139400
      dxz     :     0.060061
      dyz     :     0.006448
      dx2y2   :     0.007413
      dxy     :     0.060098
      f0      :     0.002091  f :     0.015986
      f+1     :     0.001810
      f-1     :     0.000347
      f+2     :     0.003471
      f-2     :     0.000066
      f+3     :     0.002983
      f-3     :     0.005217
  4 C s       :     3.646153  s :     3.646153
      pz      :     0.663602  p :     2.229743
      px      :     0.662912
      py      :     0.903230
      dz2     :     0.005872  d :     0.139197
      dxz     :     0.006595
      dyz     :     0.059264
      dx2y2   :     0.007552
      dxy     :     0.059913
      f0      :     0.002054  f :     0.015986
      f+1     :     0.000337
      f-1     :     0.001878
      f+2     :     0.003451
      f-2     :     0.000108
      f+3     :     0.005185
      f-3     :     0.002972
  5 O s       :     3.961872  s :     3.961872
      pz      :     1.517986  p :     4.341665
      px      :     1.518680
      py      :     1.304998
      dz2     :     0.002517  d :     0.052438
      dxz     :    -0.000038
      dyz     :     0.021246
      dx2y2   :     0.007380
      dxy     :     0.021334
      f0      :     0.000260  f :     0.001707
      f+1     :     0.000043
      f-1     :     0.000119
      f+2     :     0.000439
      f-2     :     0.000006
      f+3     :     0.000664
      f-3     :     0.000176
  6 O s       :     3.961778  s :     3.961778
      pz      :     1.518626  p :     4.341552
      px      :     1.304267
      py      :     1.518659
      dz2     :     0.002364  d :     0.052420
      dxz     :     0.021396
      dyz     :    -0.000108
      dx2y2   :     0.007366
      dxy     :     0.021402
      f0      :     0.000267  f :     0.001707
      f+1     :     0.000106
      f-1     :     0.000044
      f+2     :     0.000445
      f-2     :     0.000001
      f+3     :     0.000176
      f-3     :     0.000668
  7 O s       :     3.961575  s :     3.961575
      pz      :     1.518586  p :     4.341430
      px      :     1.304227
      py      :     1.518617
      dz2     :     0.002364  d :     0.052426
      dxz     :     0.021400
      dyz     :    -0.000108
      dx2y2   :     0.007366
      dxy     :     0.021403
      f0      :     0.000267  f :     0.001707
      f+1     :     0.000106
      f-1     :     0.000044
      f+2     :     0.000445
      f-2     :     0.000001
      f+3     :     0.000176
      f-3     :     0.000668
  8 O s       :     3.961600  s :     3.961600
      pz      :     1.517903  p :     4.341420
      px      :     1.518603
      py      :     1.304914
      dz2     :     0.002518  d :     0.052452
      dxz     :    -0.000039
      dyz     :     0.021246
      dx2y2   :     0.007385
      dxy     :     0.021341
      f0      :     0.000260  f :     0.001707
      f+1     :     0.000043
      f-1     :     0.000119
      f+2     :     0.000439
      f-2     :     0.000006
      f+3     :     0.000664
      f-3     :     0.000176
  9 C s       :     3.646226  s :     3.646226
      pz      :     0.902830  p :     2.229492
      px      :     0.662998
      py      :     0.663663
      dz2     :     0.008988  d :     0.139191
      dxz     :     0.059844
      dyz     :     0.059248
      dx2y2   :     0.004488
      dxy     :     0.006623
      f0      :     0.004770  f :     0.015983
      f+1     :     0.005510
      f-1     :     0.005493
      f+2     :     0.000089
      f-2     :     0.000114
      f+3     :     0.000003
      f-3     :     0.000003
 10 C s       :     3.646297  s :     3.646297
      pz      :     0.902926  p :     2.229520
      px      :     0.662960
      py      :     0.663634
      dz2     :     0.009005  d :     0.139203
      dxz     :     0.059843
      dyz     :     0.059239
      dx2y2   :     0.004490
      dxy     :     0.006626
      f0      :     0.004770  f :     0.015985
      f+1     :     0.005511
      f-1     :     0.005494
      f+2     :     0.000090
      f-2     :     0.000115
      f+3     :     0.000003
      f-3     :     0.000003
 11 O s       :     3.961769  s :     3.961769
      pz      :     1.305075  p :     4.341613
      px      :     1.518620
      py      :     1.517917
      dz2     :     0.009991  d :     0.052446
      dxz     :     0.021322
      dyz     :     0.021233
      dx2y2   :    -0.000071
      dxy     :    -0.000029
      f0      :     0.000291  f :     0.001707
      f+1     :     0.000705
      f-1     :     0.000697
      f+2     :     0.000007
      f-2     :     0.000007
      f+3     :     0.000000
      f-3     :     0.000000
 12 O s       :     3.961635  s :     3.961635
      pz      :     1.305059  p :     4.341486
      px      :     1.518570
      py      :     1.517857
      dz2     :     0.009996  d :     0.052455
      dxz     :     0.021324
      dyz     :     0.021234
      dx2y2   :    -0.000070
      dxy     :    -0.000028
      f0      :     0.000290  f :     0.001707
      f+1     :     0.000706
      f-1     :     0.000697
      f+2     :     0.000007
      f-2     :     0.000007
      f+3     :     0.000000
      f-3     :     0.000000


                     *******************************
                     * LOEWDIN POPULATION ANALYSIS *
                     *******************************

----------------------
LOEWDIN ATOMIC CHARGES
----------------------
   0 Ta:    0.516255
   1 C :   -0.281302
   2 C :   -0.281285
   3 C :   -0.281309
   4 C :   -0.281302
   5 O :    0.028481
   6 O :    0.028543
   7 O :    0.028646
   8 O :    0.028687
   9 C :   -0.281291
  10 C :   -0.281295
  11 O :    0.028520
  12 O :    0.028652

-------------------------------
LOEWDIN REDUCED ORBITAL CHARGES
-------------------------------
  0 Tas       :     1.927471  s :     1.927471
      pz      :     2.152764  p :     6.458328
      px      :     2.152776
      py      :     2.152788
      dz2     :     0.696209  d :     3.943785
      dxz     :     0.851481
      dyz     :     0.849441
      dx2y2   :     0.695068
      dxy     :     0.851587
      f0      :     0.047348  f :     0.154161
      f+1     :     0.020112
      f-1     :     0.020438
      f+2     :     0.003997
      f-2     :     0.000049
      f+3     :     0.031230
      f-3     :     0.030986
  1 C s       :     3.015904  s :     3.015904
      pz      :     0.637319  p :     2.388190
      px      :     1.113653
      py      :     0.637219
      dz2     :     0.077393  d :     0.788036
      dxz     :     0.248268
      dyz     :     0.016374
      dx2y2   :     0.197739
      dxy     :     0.248261
      f0      :     0.011637  f :     0.089172
      f+1     :     0.010218
      f-1     :     0.001912
      f+2     :     0.019278
      f-2     :     0.000153
      f+3     :     0.016966
      f-3     :     0.029007
  2 C s       :     3.015908  s :     3.015908
      pz      :     0.638794  p :     2.388189
      px      :     0.637220
      py      :     1.112175
      dz2     :     0.078440  d :     0.788024
      dxz     :     0.017074
      dyz     :     0.247619
      dx2y2   :     0.197339
      dxy     :     0.247552
      f0      :     0.011434  f :     0.089164
      f+1     :     0.001854
      f-1     :     0.010588
      f+2     :     0.019174
      f-2     :     0.000389
      f+3     :     0.028828
      f-3     :     0.016897
  3 C s       :     3.015893  s :     3.015893
      pz      :     0.637315  p :     2.388215
      px      :     1.113699
      py      :     0.637201
      dz2     :     0.077390  d :     0.788015
      dxz     :     0.248257
      dyz     :     0.016373
      dx2y2   :     0.197737
      dxy     :     0.248257
      f0      :     0.011639  f :     0.089186
      f+1     :     0.010218
      f-1     :     0.001913
      f+2     :     0.019283
      f-2     :     0.000153
      f+3     :     0.016966
      f-3     :     0.029014
  4 C s       :     3.015883  s :     3.015883
      pz      :     0.638764  p :     2.388240
      px      :     0.637211
      py      :     1.112264
      dz2     :     0.078437  d :     0.787987
      dxz     :     0.017073
      dyz     :     0.247612
      dx2y2   :     0.197333
      dxy     :     0.247533
      f0      :     0.011439  f :     0.089192
      f+1     :     0.001855
      f-1     :     0.010589
      f+2     :     0.019182
      f-2     :     0.000389
      f+3     :     0.028841
      f-3     :     0.016898
  5 O s       :     3.398884  s :     3.398884
      pz      :     1.362466  p :     4.350812
      px      :     1.361593
      py      :     1.626754
      dz2     :     0.029214  d :     0.214602
      dxz     :     0.000214
      dyz     :     0.049192
      dx2y2   :     0.087463
      dxy     :     0.048519
      f0      :     0.000647  f :     0.007221
      f+1     :     0.000104
      f-1     :     0.001414
      f+2     :     0.001093
      f-2     :     0.000015
      f+3     :     0.001595
      f-3     :     0.002354
  6 O s       :     3.398861  s :     3.398861
      pz      :     1.361622  p :     4.350778
      px      :     1.627587
      py      :     1.361569
      dz2     :     0.029304  d :     0.214596
      dxz     :     0.048710
      dyz     :     0.000064
      dx2y2   :     0.087850
      dxy     :     0.048667
      f0      :     0.000642  f :     0.007222
      f+1     :     0.001423
      f-1     :     0.000107
      f+2     :     0.001072
      f-2     :     0.000001
      f+3     :     0.002371
      f-3     :     0.001605
  7 O s       :     3.398820  s :     3.398820
      pz      :     1.361575  p :     4.350714
      px      :     1.627627
      py      :     1.361511
      dz2     :     0.029304  d :     0.214595
      dxz     :     0.048711
      dyz     :     0.000064
      dx2y2   :     0.087852
      dxy     :     0.048665
      f0      :     0.000642  f :     0.007225
      f+1     :     0.001424
      f-1     :     0.000107
      f+2     :     0.001073
      f-2     :     0.000001
      f+3     :     0.002372
      f-3     :     0.001606
  8 O s       :     3.398801  s :     3.398801
      pz      :     1.362355  p :     4.350685
      px      :     1.361498
      py      :     1.626833
      dz2     :     0.029216  d :     0.214601
      dxz     :     0.000214
      dyz     :     0.049188
      dx2y2   :     0.087463
      dxy     :     0.048520
      f0      :     0.000647  f :     0.007227
      f+1     :     0.000104
      f-1     :     0.001416
      f+2     :     0.001094
      f-2     :     0.000015
      f+3     :     0.001596
      f-3     :     0.002356
  9 C s       :     3.015901  s :     3.015901
      pz      :     1.111969  p :     2.388202
      px      :     0.637326
      py      :     0.638907
      dz2     :     0.257869  d :     0.788018
      dxz     :     0.247456
      dyz     :     0.247559
      dx2y2   :     0.017963
      dxy     :     0.017171
      f0      :     0.027217  f :     0.089169
      f+1     :     0.030636
      f-1     :     0.030562
      f+2     :     0.000316
      f-2     :     0.000424
      f+3     :     0.000008
      f-3     :     0.000007
 10 C s       :     3.015888  s :     3.015888
      pz      :     1.112010  p :     2.388230
      px      :     0.637308
      py      :     0.638911
      dz2     :     0.257864  d :     0.787990
      dxz     :     0.247439
      dyz     :     0.247544
      dx2y2   :     0.017967
      dxy     :     0.017176
      f0      :     0.027218  f :     0.089188
      f+1     :     0.030643
      f-1     :     0.030567
      f+2     :     0.000318
      f-2     :     0.000426
      f+3     :     0.000008
      f-3     :     0.000007
 11 O s       :     3.398867  s :     3.398867
      pz      :     1.626644  p :     4.350788
      px      :     1.361635
      py      :     1.362509
      dz2     :     0.116394  d :     0.214603
      dxz     :     0.048542
      dyz     :     0.049222
      dx2y2   :     0.000208
      dxy     :     0.000236
      f0      :     0.003749  f :     0.007222
      f+1     :     0.001700
      f-1     :     0.001741
      f+2     :     0.000016
      f-2     :     0.000017
      f+3     :     0.000000
      f-3     :     0.000000
 12 O s       :     3.398815  s :     3.398815
      pz      :     1.626686  p :     4.350706
      px      :     1.361566
      py      :     1.362454
      dz2     :     0.116389  d :     0.214601
      dxz     :     0.048538
      dyz     :     0.049228
      dx2y2   :     0.000209
      dxy     :     0.000238
      f0      :     0.003751  f :     0.007226
      f+1     :     0.001700
      f-1     :     0.001742
      f+2     :     0.000016
      f-2     :     0.000017
      f+3     :     0.000000
      f-3     :     0.000000


                      *****************************
                      * MAYER POPULATION ANALYSIS *
                      *****************************

  NA   - Mulliken gross atomic population
  ZA   - Total nuclear charge
  QA   - Mulliken gross atomic charge
  VA   - Mayer's total valence
  BVA  - Mayer's bonded valence
  FA   - Mayer's free valence

  ATOM       NA         ZA         QA         VA         BVA        FA
  0 Ta    11.6726    13.0000     1.3274     4.1879     4.1879    -0.0000
  1 C      6.0296     6.0000    -0.0296     2.9989     2.9989    -0.0000
  2 C      6.0308     6.0000    -0.0308     2.9972     2.9972    -0.0000
  3 C      6.0298     6.0000    -0.0298     2.9992     2.9992    -0.0000
  4 C      6.0311     6.0000    -0.0311     2.9975     2.9975    -0.0000
  5 O      8.3577     8.0000    -0.3577     2.2108     2.2108    -0.0000
  6 O      8.3575     8.0000    -0.3575     2.2104     2.2104    -0.0000
  7 O      8.3571     8.0000    -0.3571     2.2109     2.2109    -0.0000
  8 O      8.3572     8.0000    -0.3572     2.2114     2.2114    -0.0000
  9 C      6.0309     6.0000    -0.0309     2.9969     2.9969    -0.0000
 10 C      6.0310     6.0000    -0.0310     2.9972     2.9972    -0.0000
 11 O      8.3575     8.0000    -0.3575     2.2110     2.2110    -0.0000
 12 O      8.3573     8.0000    -0.3573     2.2112     2.2112     0.0000

  Mayer bond orders larger than 0.100000
B(  0-Ta,  1-C ) :   0.6591 B(  0-Ta,  2-C ) :   0.6583 B(  0-Ta,  3-C ) :   0.6590 
B(  0-Ta,  4-C ) :   0.6580 B(  0-Ta,  9-C ) :   0.6581 B(  0-Ta, 10-C ) :   0.6580 
B(  1-C ,  6-O ) :   2.0584 B(  2-C ,  5-O ) :   2.0587 B(  3-C ,  7-O ) :   2.0588 
B(  4-C ,  8-O ) :   2.0593 B(  9-C , 11-O ) :   2.0589 B( 10-C , 12-O ) :   2.0592 


-------
TIMINGS
-------

Total SCF time: 0 days 0 hours 1 min 40 sec 

Total time                  ....     100.771 sec
Sum of individual times     ....      99.564 sec  ( 98.8%)

[...]
     20       0.008829   0.012158  -0.045925   0.005821  -0.000997  -0.004244
     21       0.486331  -0.008311   0.018556  -0.412022   0.072474   0.298089
     22      -0.000208   0.046196   0.012330   0.000464  -0.000084  -0.000322
     23       0.008820   0.012169  -0.045978  -0.005817   0.000996   0.004245
     24       0.047847  -0.000835   0.002451   0.000062   0.000068   0.000054
     25       0.004313   0.475509   0.100337   0.267189   0.320314   0.298395
     26       0.002822   0.037263  -0.041089   0.015665   0.018283   0.017589
     27      -0.091921   0.000183   0.003307  -0.001815   0.005224  -0.004005
     28      -0.001879  -0.095485   0.009188  -0.008119   0.021386  -0.016530
     29       0.017619   0.090910  -0.471212   0.136082  -0.373158   0.278315
     30      -0.091909   0.000186   0.003276   0.001795  -0.005200   0.003941
     31      -0.001875  -0.095491   0.009193   0.008111  -0.021413   0.016634
     32       0.017517   0.091077  -0.471213  -0.136072   0.373139  -0.278297
     33       0.047557  -0.002217   0.008655  -0.002108   0.005679  -0.004299
     34      -0.000722   0.041190   0.037409  -0.008325   0.023163  -0.017497
     35       0.019930   0.100076  -0.475086   0.142684  -0.391230   0.299286
     36       0.047555  -0.002208   0.008600   0.002096  -0.005627   0.004280
     37      -0.000717   0.041155   0.037501   0.008359  -0.023231   0.017512
     38       0.019801   0.100276  -0.475078  -0.142671   0.391208  -0.299271
                 24         25         26         27         28         29    
      0      -0.000016  -0.000005   0.000000  -0.000023  -0.000006  -0.000008
      1       0.000006   0.000003   0.000000   0.000009   0.000029   0.000033
      2       0.000001  -0.000000   0.000015   0.000002  -0.000042  -0.000003
      3      -0.002097   0.005006  -0.003830  -0.000081   0.000838  -0.006559
      4      -0.452581  -0.142429   0.019398   0.006091  -0.460965  -0.085636
      5       0.127275  -0.367242   0.272689   0.006982  -0.085378   0.460811
      6      -0.444767  -0.159596   0.040660   0.468654   0.006510   0.000799
      7      -0.003401   0.015327   0.022187  -0.000060  -0.003348   0.026838
      8       0.060396  -0.266884  -0.386889  -0.000047   0.058629  -0.463813
      9       0.002285  -0.004944   0.003818  -0.000095   0.000680  -0.006582
     10       0.452554   0.142419  -0.019384   0.005993  -0.461002  -0.085634
     11      -0.127306   0.367326  -0.272685   0.006961  -0.085376   0.460741
     12       0.444886   0.159648  -0.040676   0.468528   0.006474   0.000796
     13       0.003316  -0.015363  -0.022191  -0.000134  -0.003380   0.026847
     14      -0.060379   0.266825   0.386886  -0.000053   0.058649  -0.463862
     15       0.147420   0.052902  -0.013482  -0.174712  -0.002426  -0.000300
     16       0.001188  -0.005321  -0.007693   0.000023   0.001336  -0.010075
     17      -0.020015   0.088442   0.128180   0.000014  -0.021849   0.172818
     18       0.000817  -0.001760   0.001279   0.000049  -0.000281   0.002488
     19       0.150098   0.047228  -0.006429  -0.002265   0.171806   0.031912
     20      -0.042215   0.121808  -0.090438  -0.002603   0.031832  -0.171779
     21      -0.000798   0.001766  -0.001281   0.000028  -0.000263   0.002492
     22      -0.150084  -0.047222   0.006423  -0.002236   0.171815   0.031911
     23       0.042229  -0.121844   0.090432  -0.002597   0.031831  -0.171757
     24      -0.147468  -0.052923   0.013488  -0.174671  -0.002415  -0.000299
     25      -0.001198   0.005314   0.007692   0.000029   0.001302  -0.010084
     26       0.020004  -0.088414  -0.128174   0.000015  -0.021858   0.172827
     27      -0.153223   0.357962  -0.270714  -0.468236  -0.007156   0.005760
     28      -0.066476   0.264120   0.387642  -0.006070   0.463643   0.058441
     29      -0.006168   0.020927   0.019188  -0.007101   0.027221   0.003491
     30       0.153152  -0.358012   0.270741  -0.468212  -0.007162   0.005814
     31       0.066512  -0.264124  -0.387660  -0.006077   0.463603   0.058487
     32       0.006155  -0.020928  -0.019374  -0.007014   0.027335   0.003507
     33       0.050800  -0.118666   0.089725   0.174577   0.002659  -0.002148
     34       0.022033  -0.087541  -0.128469   0.002270  -0.172757  -0.021768
     35       0.001991  -0.006659  -0.005988   0.002680  -0.010141  -0.001362
     36      -0.050766   0.118685  -0.089734   0.174567   0.002660  -0.002164
     37      -0.022050   0.087540   0.128481   0.002271  -0.172745  -0.021781
     38      -0.001991   0.006652   0.005959   0.002671  -0.010148  -0.001365
                 30         31         32         33         34         35    
      0       0.075823   0.003845  -0.000194   0.000484   0.000006  -0.000017
      1       0.003730  -0.074399  -0.014781  -0.000004  -0.000408  -0.000266
      2       0.000940  -0.014779   0.074491   0.000017  -0.000266   0.000409
      3      -0.024195  -0.002097   0.006320  -0.567003  -0.002842   0.010864
      4      -0.023680   0.461855   0.091709   0.000470  -0.001493  -0.000972
      5       0.000444   0.092030  -0.462560  -0.007987  -0.001008   0.001646
      6      -0.471160  -0.023883   0.001212   0.001778   0.000086  -0.000018
      7      -0.000887   0.020181   0.030353   0.002930   0.492451   0.279505
      8      -0.004568   0.065977  -0.466676   0.000229   0.027681   0.017745
      9      -0.024203  -0.001956   0.006343  -0.566965  -0.002741   0.010939
     10      -0.023642   0.461865   0.091708   0.000631  -0.001493  -0.000975
     11       0.000439   0.092029  -0.462531  -0.007982  -0.001006   0.001647
     12      -0.471106  -0.023872   0.001212   0.001778   0.000149   0.000018
     13      -0.000822   0.020184   0.030363   0.002966   0.492366   0.279479
     14      -0.004563   0.065986  -0.466684   0.000231   0.027686   0.017750
     15       0.159020   0.008064  -0.000407  -0.000957  -0.000060   0.000002
     16      -0.001169   0.022221  -0.006261  -0.002183  -0.366646  -0.208127
     17       0.001453  -0.020578   0.157666  -0.000159  -0.020784  -0.012900
     18      -0.021143  -0.000732  -0.002500   0.422179   0.002117  -0.008095
     19       0.008015  -0.155875  -0.030944  -0.000351   0.000802   0.000526
     20      -0.000564  -0.031085   0.156128   0.005950   0.000551  -0.000918
     21      -0.021142  -0.000768  -0.002507   0.422152   0.002045  -0.008149
     22       0.008011  -0.155877  -0.030944  -0.000471   0.000802   0.000529
     23      -0.000562  -0.031085   0.156118   0.005947   0.000550  -0.000919
     24       0.159003   0.008065  -0.000407  -0.000957  -0.000107  -0.000025
     25      -0.001185   0.022223  -0.006264  -0.002209  -0.366585  -0.208108
     26       0.001451  -0.020580   0.157667  -0.000160  -0.020788  -0.012904
     27      -0.471396  -0.023104  -0.005001   0.001935  -0.004033   0.007082
     28      -0.023032   0.466243   0.066377   0.000631  -0.018010   0.028140
     29      -0.008022   0.030459  -0.020209  -0.010874   0.279440  -0.492253
     30      -0.471383  -0.023101  -0.005020   0.001932  -0.003990   0.007005
     31      -0.023036   0.466221   0.066384   0.000629  -0.018065   0.028232
     32      -0.007948   0.030563  -0.020194  -0.010806   0.279459  -0.492185
     33       0.159106   0.007731   0.002105  -0.001076   0.003001  -0.005273
     34       0.007767  -0.157525  -0.020685  -0.000472   0.013096  -0.021123
     35       0.002897  -0.006278  -0.022263   0.008100  -0.208074   0.366496
     36       0.159101   0.007731   0.002107  -0.001074   0.002968  -0.005215
     37       0.007768  -0.157518  -0.020681  -0.000471   0.013138  -0.021192
     38       0.002878  -0.006301  -0.022267   0.008051  -0.208087   0.366447
                 36         37         38    
      0      -0.000000   0.000000   0.000000
      1       0.000001  -0.000000   0.000000
      2       0.000000   0.000000  -0.000000
      3      -0.467923   0.038178  -0.334544
      4       0.000396  -0.000034   0.000285
      5      -0.006620   0.000542  -0.004730
      6       0.000036   0.000051  -0.000045
      7       0.266372   0.385479  -0.334234
      8       0.015447   0.022356  -0.019381
      9       0.467958  -0.038254   0.334547
     10      -0.000530   0.000044  -0.000377
     11       0.006616  -0.000543   0.004727
     12      -0.000071  -0.000100   0.000086
     13      -0.266528  -0.385490   0.334241
     14      -0.015462  -0.022365   0.019388
     15      -0.000025  -0.000037   0.000031
     16      -0.190716  -0.275987   0.233340
     17      -0.011059  -0.016001   0.013530
     18       0.335027  -0.027333   0.233557
     19      -0.000283   0.000023  -0.000198
     20       0.004736  -0.000385   0.003303
     21      -0.335053   0.027390  -0.233559
     22       0.000378  -0.000031   0.000264
     23      -0.004734   0.000386  -0.003302
     24       0.000050   0.000072  -0.000061
     25       0.190832   0.275995  -0.233345
     26       0.011069   0.016007  -0.013535
     27       0.002896  -0.006117  -0.004824
     28       0.011802  -0.024943  -0.019682
     29      -0.200375   0.423461   0.334237
     30      -0.002865   0.006052   0.004774
     31      -0.011842   0.025030   0.019746
     32       0.200393  -0.423505  -0.334239
     33      -0.002070   0.004378   0.003370
     34      -0.008454   0.017862   0.013749
     35       0.143464  -0.303176  -0.233338
     36       0.002048  -0.004331  -0.003334
     37       0.008482  -0.017924  -0.013794
     38      -0.143477   0.303210   0.233340


-----------
IR SPECTRUM
-----------

 Mode   freq       eps      Int      T**2         TX        TY        TZ
       cm**-1   L/(mol*cm) km/mol    a.u.
----------------------------------------------------------------------------
  6:     39.97   0.000000    0.00  0.000000  ( 0.000035 -0.000022  0.000076)
  7:     40.28   0.000000    0.00  0.000000  ( 0.000007 -0.000160  0.000074)
  8:     40.37   0.000000    0.00  0.000000  ( 0.000016 -0.000042  0.000022)
  9:     64.20   0.000322    1.63  0.001564  (-0.039407 -0.000586  0.003310)
 10:     64.31   0.000323    1.63  0.001566  ( 0.000003 -0.038958 -0.006963)
 11:     64.39   0.000323    1.63  0.001566  ( 0.003354 -0.006976  0.038811)
 12:     70.69   0.000000    0.00  0.000000  ( 0.000012  0.000002 -0.000000)
 13:     70.77   0.000000    0.00  0.000000  (-0.000007 -0.000001  0.000007)
 14:     70.89   0.000000    0.00  0.000000  ( 0.000000 -0.000007  0.000004)
 15:    355.81   0.000000    0.00  0.000000  ( 0.000001  0.000002  0.000000)
 16:    355.87   0.000000    0.00  0.000000  ( 0.000001 -0.000000 -0.000000)
 17:    356.13   0.000000    0.00  0.000000  (-0.000000  0.000001  0.000006)
 18:    368.44   0.006857   34.65  0.005807  ( 0.076095  0.000466  0.004091)
 19:    368.50   0.006847   34.60  0.005799  (-0.001499  0.073595  0.019501)
 20:    368.54   0.006852   34.63  0.005802  ( 0.003852  0.019634 -0.073496)
 21:    385.63   0.000000    0.00  0.000000  ( 0.000003  0.000017  0.000002)
 22:    385.70   0.000000    0.00  0.000000  ( 0.000014 -0.000017 -0.000002)
 23:    397.43   0.000000    0.00  0.000000  (-0.000001 -0.000004  0.000001)
 24:    453.15   0.000000    0.00  0.000000  ( 0.000016 -0.000005 -0.000002)
 25:    453.18   0.000000    0.00  0.000000  ( 0.000004 -0.000003  0.000002)
 26:    453.20   0.000000    0.00  0.000000  (-0.000000 -0.000000 -0.000012)
 27:    505.59   0.000000    0.00  0.000000  ( 0.000019 -0.000022 -0.000000)
 28:    505.67   0.000000    0.00  0.000000  ( 0.000005 -0.000066  0.000069)
 29:    505.69   0.000000    0.00  0.000000  ( 0.000014 -0.000061  0.000045)
 30:    564.90   0.009027   45.62  0.004987  (-0.070525 -0.003456 -0.000909)
 31:    565.01   0.009028   45.62  0.004986  (-0.003572  0.069161  0.013787)
 32:    565.02   0.009020   45.58  0.004982  ( 0.000175  0.013705 -0.069238)
 33:   1932.75   0.631829  3193.01  0.102016  (-0.319217  0.002335 -0.010529)
 34:   1932.82   0.631536  3191.52  0.101964  (-0.003768  0.268046  0.173497)
 35:   1932.86   0.632099  3194.37  0.102054  ( 0.010131  0.173670 -0.267936)
 36:   1954.06   0.000000    0.00  0.000000  ( 0.000009 -0.000071  0.000001)
 37:   1954.14   0.000000    0.00  0.000000  (-0.000039  0.000013 -0.000014)
 38:   2075.54   0.000000    0.00  0.000000  ( 0.000000 -0.000000 -0.000001)

* The epsilon (eps) is given for a Dirac delta lineshape.
** The dipole moment derivative (T) already includes vibrational overlap.

The first frequency considered to be a vibration is 6
The total number of vibrations considered is 33


--------------------------
THERMOCHEMISTRY AT 298.15K
--------------------------

Temperature         ... 298.15 K
Pressure            ... 1.00 atm
Total Mass          ... 349.01 AMU

Throughout the following assumptions are being made:
  (1) The electronic state is orbitally nondegenerate
  (2) There are no thermally accessible electronically excited states
  (3) Hindered rotations indicated by low frequency modes are not
      treated as such but are treated as vibrations and this may
      cause some error
  (4) All equations used are the standard statistical mechanics
      equations for an ideal gas
  (5) All vibrations are strictly harmonic

freq.      39.97  E(vib)   ...       0.54 
freq.      40.28  E(vib)   ...       0.54 
freq.      40.37  E(vib)   ...       0.54 
freq.      64.20  E(vib)   ...       0.51 
freq.      64.31  E(vib)   ...       0.51 
freq.      64.39  E(vib)   ...       0.51 
freq.      70.69  E(vib)   ...       0.50 
freq.      70.77  E(vib)   ...       0.50 
freq.      70.89  E(vib)   ...       0.50 
freq.     355.81  E(vib)   ...       0.22 
freq.     355.87  E(vib)   ...       0.22 
freq.     356.13  E(vib)   ...       0.22 
freq.     368.44  E(vib)   ...       0.21 
freq.     368.50  E(vib)   ...       0.21 
freq.     368.54  E(vib)   ...       0.21 
freq.     385.63  E(vib)   ...       0.20 
freq.     385.70  E(vib)   ...       0.20 
freq.     397.43  E(vib)   ...       0.20 
freq.     453.15  E(vib)   ...       0.16 
freq.     453.18  E(vib)   ...       0.16 
freq.     453.20  E(vib)   ...       0.16 
freq.     505.59  E(vib)   ...       0.14 
freq.     505.67  E(vib)   ...       0.14 
freq.     505.69  E(vib)   ...       0.14 
freq.     564.90  E(vib)   ...       0.11 
freq.     565.01  E(vib)   ...       0.11 
freq.     565.02  E(vib)   ...       0.11 
freq.    1932.75  E(vib)   ...       0.00 
freq.    1932.82  E(vib)   ...       0.00 
freq.    1932.86  E(vib)   ...       0.00 
freq.    1954.06  E(vib)   ...       0.00 
freq.    1954.14  E(vib)   ...       0.00 
freq.    2075.54  E(vib)   ...       0.00 

------------
INNER ENERGY
------------

The inner energy is: U= E(el) + E(ZPE) + E(vib) + E(rot) + E(trans)
    E(el)   - is the total energy from the electronic structure calculation
              = E(kin-el) + E(nuc-el) + E(el-el) + E(nuc-nuc)
    E(ZPE)  - the the zero temperature vibrational energy from the frequency calculation
    E(vib)  - the the finite temperature correction to E(ZPE) due to population
              of excited vibrational states
    E(rot)  - is the rotational thermal energy
    E(trans)- is the translational thermal energy

Summary of contributions to the inner energy U:
Electronic energy                ...   -737.13607678 Eh
Zero point energy                ...      0.04606792 Eh      28.91 kcal/mol
Thermal vibrational correction   ...      0.01239478 Eh       7.78 kcal/mol
Thermal rotational correction    ...      0.00141627 Eh       0.89 kcal/mol
Thermal translational correction ...      0.00141627 Eh       0.89 kcal/mol
-----------------------------------------------------------------------
Total thermal energy                   -737.07478153 Eh


Summary of corrections to the electronic energy:
(perhaps to be used in another calculation)
Total thermal correction                  0.01522732 Eh       9.56 kcal/mol
Non-thermal (ZPE) correction              0.04606792 Eh      28.91 kcal/mol
-----------------------------------------------------------------------
Total correction                          0.06129524 Eh      38.46 kcal/mol


--------
ENTHALPY
--------

The enthalpy is H = U + kB*T
                kB is Boltzmann's constant
Total free energy                 ...   -737.07478153 Eh 
Thermal Enthalpy correction       ...      0.00094421 Eh       0.59 kcal/mol
-----------------------------------------------------------------------
Total Enthalpy                    ...   -737.07383732 Eh


Note: Only C1 symmetry has been detected, increase convergence thresholds 
      if your molecule has a higher symmetry. Symmetry factor of 1.0 is   
      used for the rotational entropy correction. 
 

Note: Rotational entropy computed according to Herzberg 
Infrared and Raman Spectra, Chapter V,1, Van Nostrand Reinhold, 1945 
Point Group:  C1, Symmetry Number:   1  
Rotational constants in cm-1:     0.018449     0.018445     0.018439 

Vibrational entropy computed according to the QRRHO of S. Grimme
Chem.Eur.J. 2012 18 9955


-------
ENTROPY
-------

The entropy contributions are T*S = T*(S(el)+S(vib)+S(rot)+S(trans))
     S(el)   - electronic entropy
     S(vib)  - vibrational entropy
     S(rot)  - rotational entropy
     S(trans)- translational entropy
The entropies will be listed as multiplied by the temperature to get
units of energy

Electronic entropy                ...      0.00000000 Eh      0.00 kcal/mol
Vibrational entropy               ...      0.02254135 Eh     14.14 kcal/mol
Rotational entropy                ...      0.01516598 Eh      9.52 kcal/mol
Translational entropy             ...      0.02064147 Eh     12.95 kcal/mol
-----------------------------------------------------------------------
Final entropy term                ...      0.05834880 Eh     36.61 kcal/mol

In case the symmetry of your molecule has not been determined correctly
or in case you have a reason to use a different symmetry number we print 
out the resulting rotational entropy values for sn=1,12 :
 --------------------------------------------------------
|  sn= 1 | S(rot)=       0.01516598 Eh      9.52 kcal/mol|
|  sn= 2 | S(rot)=       0.01451152 Eh      9.11 kcal/mol|
|  sn= 3 | S(rot)=       0.01412869 Eh      8.87 kcal/mol|
|  sn= 4 | S(rot)=       0.01385707 Eh      8.70 kcal/mol|
|  sn= 5 | S(rot)=       0.01364638 Eh      8.56 kcal/mol|
|  sn= 6 | S(rot)=       0.01347423 Eh      8.46 kcal/mol|
|  sn= 7 | S(rot)=       0.01332869 Eh      8.36 kcal/mol|
|  sn= 8 | S(rot)=       0.01320261 Eh      8.28 kcal/mol|
|  sn= 9 | S(rot)=       0.01309140 Eh      8.21 kcal/mol|
|  sn=10 | S(rot)=       0.01299192 Eh      8.15 kcal/mol|
|  sn=11 | S(rot)=       0.01290193 Eh      8.10 kcal/mol|
|  sn=12 | S(rot)=       0.01281978 Eh      8.04 kcal/mol|
 --------------------------------------------------------


-------------------
GIBBS FREE ENERGY
-------------------

The Gibbs free energy is G = H - T*S

Total enthalpy                    ...   -737.07383732 Eh 
Total entropy correction          ...     -0.05834880 Eh    -36.61 kcal/mol
-----------------------------------------------------------------------
Final Gibbs free energy         ...   -737.13218613 Eh

For completeness - the Gibbs free energy minus the electronic energy
G-E(el)                           ...      0.00389065 Eh      2.44 kcal/mol


Timings for individual modules:

Sum of individual times         ...     2141.029 sec (=  35.684 min)
GTO integral calculation        ...       12.221 sec (=   0.204 min)   0.6 %
SCF iterations                  ...      476.760 sec (=   7.946 min)  22.3 %
SCF Gradient evaluation         ...      156.278 sec (=   2.605 min)   7.3 %
Geometry relaxation             ...        0.308 sec (=   0.005 min)   0.0 %
Analytical frequency calculation...     1495.462 sec (=  24.924 min)  69.8 %
                             ****ORCA TERMINATED NORMALLY****
TOTAL RUN TIME: 0 days 0 hours 35 minutes 42 seconds 575 msec
