
                                 *****************
                                 * O   R   C   A *
                                 *****************

                                            #,                                       
                                            ###                                      
                                            ####                                     
                                            #####                                    
                                            ######                                   
                                           ########,                                 
                                     ,,################,,,,,                         
                               ,,#################################,,                 
                          ,,##########################################,,             
                       ,#########################################, ''#####,          
                    ,#############################################,,   '####,        
                  ,##################################################,,,,####,       
                ,###########''''           ''''###############################       
              ,#####''   ,,,,##########,,,,          '''####'''          '####       
            ,##' ,,,,###########################,,,                        '##       
           ' ,,###''''                  '''############,,,                           
         ,,##''                                '''############,,,,        ,,,,,,###''
      ,#''                                            '''#######################'''  
     '                                                          ''''####''''         
             ,#######,   #######,   ,#######,      ##                                
            ,#'     '#,  ##    ##  ,#'     '#,    #''#        ######   ,####,        
            ##       ##  ##   ,#'  ##            #'  '#       #        #'  '#        
            ##       ##  #######   ##           ,######,      #####,   #    #        
            '#,     ,#'  ##    ##  '#,     ,#' ,#      #,         ##   #,  ,#        
             '#######'   ##     ##  '#######'  #'      '#     #####' # '####'        



                  #######################################################
                  #                        -***-                        #
                  #          Department of theory and spectroscopy      #
                  #    Directorship and core code : Frank Neese         #
                  #        Max Planck Institute fuer Kohlenforschung    #
                  #                Kaiser Wilhelm Platz 1               #
                  #                 D-45470 Muelheim/Ruhr               #
                  #                      Germany                        #
                  #                                                     #
                  #                  All rights reserved                #
                  #                        -***-                        #
                  #######################################################



                         Program Version 5.0.4 -  RELEASE  -

 With contributions from (in alphabetic order):
   Daniel Aravena         : Magnetic Suceptibility
   Michael Atanasov       : Ab Initio Ligand Field Theory (pilot matlab implementation)
   Alexander A. Auer      : GIAO ZORA, VPT2 properties, NMR spectrum
   Ute Becker             : Parallelization
   Giovanni Bistoni       : ED, misc. LED, open-shell LED, HFLD
   Martin Brehm           : Molecular dynamics
   Dmytro Bykov           : SCF Hessian
   Vijay G. Chilkuri      : MRCI spin determinant printing, contributions to CSF-ICE
   Dipayan Datta          : RHF DLPNO-CCSD density
   Achintya Kumar Dutta   : EOM-CC, STEOM-CC
   Dmitry Ganyushin       : Spin-Orbit,Spin-Spin,Magnetic field MRCI
   Miquel Garcia          : C-PCM and meta-GGA Hessian, CC/C-PCM, Gaussian charge scheme
   Yang Guo               : DLPNO-NEVPT2, F12-NEVPT2, CIM, IAO-localization
   Andreas Hansen         : Spin unrestricted coupled pair/coupled cluster methods
   Benjamin Helmich-Paris : MC-RPA, TRAH-SCF, COSX integrals
   Lee Huntington         : MR-EOM, pCC
   Robert Izsak           : Overlap fitted RIJCOSX, COSX-SCS-MP3, EOM
   Marcus Kettner         : VPT2
   Christian Kollmar      : KDIIS, OOCD, Brueckner-CCSD(T), CCSD density, CASPT2, CASPT2-K
   Simone Kossmann        : Meta GGA functionals, TD-DFT gradient, OOMP2, MP2 Hessian
   Martin Krupicka        : Initial AUTO-CI
   Lucas Lang             : DCDCAS
   Marvin Lechner         : AUTO-CI (C++ implementation), FIC-MRCC
   Dagmar Lenk            : GEPOL surface, SMD
   Dimitrios Liakos       : Extrapolation schemes; Compound Job, initial MDCI parallelization
   Dimitrios Manganas     : Further ROCIS development; embedding schemes
   Dimitrios Pantazis     : SARC Basis sets
   Anastasios Papadopoulos: AUTO-CI, single reference methods and gradients
   Taras Petrenko         : DFT Hessian,TD-DFT gradient, ASA, ECA, R-Raman, ABS, FL, XAS/XES, NRVS
   Peter Pinski           : DLPNO-MP2, DLPNO-MP2 Gradient
   Christoph Reimann      : Effective Core Potentials
   Marius Retegan         : Local ZFS, SOC
   Christoph Riplinger    : Optimizer, TS searches, QM/MM, DLPNO-CCSD(T), (RO)-DLPNO pert. Triples
   Tobias Risthaus        : Range-separated hybrids, TD-DFT gradient, RPA, STAB
   Michael Roemelt        : Original ROCIS implementation
   Masaaki Saitow         : Open-shell DLPNO-CCSD energy and density
   Barbara Sandhoefer     : DKH picture change effects
   Avijit Sen             : IP-ROCIS
   Kantharuban Sivalingam : CASSCF convergence, NEVPT2, FIC-MRCI
   Bernardo de Souza      : ESD, SOC TD-DFT
   Georgi Stoychev        : AutoAux, RI-MP2 NMR, DLPNO-MP2 response
   Willem Van den Heuvel  : Paramagnetic NMR
   Boris Wezisla          : Elementary symmetry handling
   Frank Wennmohs         : Technical directorship


 We gratefully acknowledge several colleagues who have allowed us to
 interface, adapt or use parts of their codes:
   Stefan Grimme, W. Hujo, H. Kruse, P. Pracht,  : VdW corrections, initial TS optimization,
                  C. Bannwarth, S. Ehlert          DFT functionals, gCP, sTDA/sTD-DF
   Ed Valeev, F. Pavosevic, A. Kumar             : LibInt (2-el integral package), F12 methods
   Garnet Chan, S. Sharma, J. Yang, R. Olivares  : DMRG
   Ulf Ekstrom                                   : XCFun DFT Library
   Mihaly Kallay                                 : mrcc  (arbitrary order and MRCC methods)
   Jiri Pittner, Ondrej Demel                    : Mk-CCSD
   Frank Weinhold                                : gennbo (NPA and NBO analysis)
   Christopher J. Cramer and Donald G. Truhlar   : smd solvation model
   Lars Goerigk                                  : TD-DFT with DH, B97 family of functionals
   V. Asgeirsson, H. Jonsson                     : NEB implementation
   FAccTs GmbH                                   : IRC, NEB, NEB-TS, DLPNO-Multilevel, CI-OPT
                                                   MM, QMMM, 2- and 3-layer-ONIOM, Crystal-QMMM,
                                                   LR-CPCM, SF, NACMEs, symmetry and pop. for TD-DFT,
                                                   nearIR, NL-DFT gradient (VV10), updates on ESD,
                                                   ML-optimized integration grids
   S Lehtola, MJT Oliveira, MAL Marques          : LibXC Library
   Liviu Ungur et al                             : ANISO software


 Your calculation uses the libint2 library for the computation of 2-el integrals
 For citations please refer to: http://libint.valeyev.net

 Your ORCA version has been built with support for libXC version: 5.1.0
 For citations please refer to: https://tddft.org/programs/libxc/

 This ORCA versions uses:
   CBLAS   interface :  Fast vector & matrix operations
   LAPACKE interface :  Fast linear algebra routines
   Shared memory     :  Shared parallel matrices


================================================================================

cite the ECPs for Ta [Def2-ECP] as follows:
Ce-Yb(ecp-28): M. Dolg, H. Stoll, H.Preuss, J. Chem. Phys., 1989, 90, 1730-1734.
Y-Cd(ecp-28), Hf-Hg(ecp-46): D. Andrae,U. Haeussermann, M. Dolg, H. Stoll, H. Preuss, Theor. Chim. Acta, 1990, 77, 123-141.
In-Sb(ecp-28), Tl-Bi(ecp-46): B. Metz, H. Stoll, M. Dolg, J. Chem. Phys., 2000, 113, 2563-2569.
Te-Xe(ecp-28), Po-Rn(ecp-46): K. A. Peterson, D. Figgen, E. Goll, H. Stoll, M. Dolg, J. Chem. Phys., 2003, 119, 11113-11123.
Rb(ecp-28), Cs(ecp-46): T. Leininger, A. Nicklass, W. Kuechle, H. Stoll, M. Dolg, A. Bergner, Chem. Phys. Lett., 1996, 255, 274-280.
Sr(ecp-28), Ba(ecp-46): M. Kaupp, P. V. Schleyer, H. Stoll and H. Preuss, J. Chem. Phys., 1991, 94, 1360-1366.
La(ecp-46): M. Dolg, H. Stoll, A. Savin, H. Preuss, Theor. Chim. Acta, 1989, 75, 173-194.
Lu(ecp-28): X. Cao, M. Dolg, J. Chem. Phys., 2001, 115, 7348-7355.

ECP parameters for Ta [Def2-ECP] have been obtained from:
TURBOMOLE (7.0.2)

----- Orbital basis set information -----
Your calculation utilizes the basis: def2-TZVPD
   F. Weigend and R. Ahlrichs, Phys. Chem. Chem. Phys. 7, 3297 (2005).
   D. Rappoport and F. Furche, J. Chem. Phys. 133 134105 (2010).

----- AuxJ basis set information -----
Your calculation utilizes the auxiliary basis: def2/J
   F. Weigend, Phys. Chem. Chem. Phys. 8, 1057 (2006).

================================================================================
                                        WARNINGS
                       Please study these warnings very carefully!
================================================================================


WARNING: your system is open-shell and RHF/RKS was chosen
  ===> : WILL SWITCH to UHF/UKS


WARNING: Geometry Optimization
  ===> : Switching off AutoStart
         For restart on a previous wavefunction, please use MOREAD

INFO   : the flag for use of the SHARK integral package has been found!

================================================================================
                                       INPUT FILE
================================================================================
NAME = TaCO6.inp
|  1> !B3LYP def2-TZVPD OPT FREQ TightSCF PAL8

|  2> 

|  3> %scf

|  4>   MaxIter 300

|  5> end

|  6> 

|  7> * xyz 0 2 

|  8> Ta         0.27389        0.93013        0.02870

|  9> C          2.48952        0.92813        0.05974

| 10> C          0.27413        3.14227        0.15631

| 11> C         -1.94181        0.93257       -0.00228

| 12> C          0.27335       -1.28214       -0.09889

| 13> O          0.27421        4.26850        0.22072

| 14> O          3.61744        0.92722        0.07540

| 15> O         -3.06965        0.93392       -0.01792

| 16> O          0.27303       -2.40821       -0.16332

| 17> C          0.30585        1.06042       -2.18307

| 18> C          0.24221        0.79935        2.24054

| 19> O          0.32231        1.12721       -3.30901

| 20> O          0.22601        0.73218        3.36636

| 21> **                         ****END OF INPUT****
================================================================================

                       *****************************
                       * Geometry Optimization Run *
                       *****************************

Geometry optimization settings:
Update method            Update   .... BFGS
Choice of coordinates    CoordSys .... Z-matrix Internals
Initial Hessian          InHess   .... Almoef's Model

Convergence Tolerances:
Energy Change            TolE     ....  5.0000e-06 Eh
Max. Gradient            TolMAXG  ....  3.0000e-04 Eh/bohr
RMS Gradient             TolRMSG  ....  1.0000e-04 Eh/bohr
Max. Displacement        TolMAXD  ....  4.0000e-03 bohr
RMS Displacement         TolRMSD  ....  2.0000e-03 bohr
Strict Convergence                ....  False
------------------------------------------------------------------------------
                        ORCA OPTIMIZATION COORDINATE SETUP
------------------------------------------------------------------------------

The optimization will be done in new redundant internal coordinates
Making redundant internal coordinates   ...  (new redundants) done
Evaluating the initial hessian          ...  (Almloef) done
Evaluating the coordinates              ...  done
Calculating the B-matrix                .... done
Calculating the G-matrix                .... done
Diagonalizing the G-matrix              .... done
The first mode is                       ....    3
The number of degrees of freedom        ....   33

    -----------------------------------------------------------------
                    Redundant Internal Coordinates


    -----------------------------------------------------------------
         Definition                    Initial Value    Approx d2E/dq
    -----------------------------------------------------------------
      1. B(C   1,Ta  0)                  2.2158         0.070000   
      2. B(C   2,Ta  0)                  2.2158         0.070008   
      3. B(C   3,Ta  0)                  2.2159         0.069983   
      4. B(C   4,Ta  0)                  2.2159         0.069975   
      5. B(O   5,C   2)                  1.1281         1.464764   
      6. B(O   6,C   1)                  1.1280         1.464986   
      7. B(O   7,C   3)                  1.1279         1.465415   
      8. B(O   8,C   4)                  1.1279         1.465617   
      9. B(C   9,Ta  0)                  2.2158         0.070004   
     10. B(C  10,Ta  0)                  2.2159         0.069980   
     11. B(O  11,C   9)                  1.1280         1.464930   
     12. B(O  12,C  10)                  1.1279         1.465474   
     13. A(C   3,Ta  0,C   9)           90.0230         0.233493   
     14. A(C   2,Ta  0,C   9)           89.9302         0.233505   
     15. A(C   1,Ta  0,C  10)           90.0149         0.233490   
     16. A(C   2,Ta  0,C  10)           90.0824         0.233494   
     17. A(C   4,Ta  0,C  10)           89.9168         0.233478   
     18. A(C   4,Ta  0,C   9)           90.0706         0.233490   
     19. A(C   2,Ta  0,C   3)           89.9894         0.233495   
     20. A(C   3,Ta  0,C   4)           90.0029         0.233480   
     21. A(C   1,Ta  0,C   2)           89.9992         0.233504   
     22. A(C   3,Ta  0,C  10)           89.9842         0.233482   
     23. A(C   1,Ta  0,C   4)           90.0085         0.233488   
     24. A(C   1,Ta  0,C   9)           89.9779         0.233501   
     25. L(Ta  0,C   1,O   6,C   9, 1) 179.9925         0.358042   
     26. L(Ta  0,C   1,O   6,C   9, 2) 179.9928         0.358042   
     27. L(Ta  0,C   2,O   5,C   9, 2) 179.9964         0.358040   
     28. L(Ta  0,C   2,O   5,C   9, 1) 179.9717         0.358040   
     29. L(Ta  0,C   3,O   7,C  10, 2) 179.9917         0.358044   
     30. L(Ta  0,C   3,O   7,C  10, 1) 179.9938         0.358044   
     31. L(Ta  0,C   4,O   8,C  10, 2) 179.9973         0.358046   
     32. L(Ta  0,C   4,O   8,C  10, 1) 179.9739         0.358046   
     33. L(Ta  0,C   9,O  11,C   2, 2) 179.9864         0.358043   
     34. L(Ta  0,C   9,O  11,C   2, 1) 179.9765         0.358043   
     35. L(Ta  0,C  10,O  12,C   4, 2) 180.0053         0.358044   
     36. L(Ta  0,C  10,O  12,C   4, 1) 179.9694         0.358044   
    -----------------------------------------------------------------

Number of atoms                         .... 13
Number of degrees of freedom            .... 36

         *************************************************************
         *                GEOMETRY OPTIMIZATION CYCLE   1            *
         *************************************************************
---------------------------------
CARTESIAN COORDINATES (ANGSTROEM)
---------------------------------
  Ta     0.273890    0.930130    0.028700
  C      2.489520    0.928130    0.059740
  C      0.274130    3.142270    0.156310
  C     -1.941810    0.932570   -0.002280
  C      0.273350   -1.282140   -0.098890
  O      0.274210    4.268500    0.220720
  O      3.617440    0.927220    0.075400
  O     -3.069650    0.933920   -0.017920
  O      0.273030   -2.408210   -0.163320
  C      0.305850    1.060420   -2.183070
  C      0.242210    0.799350    2.240540
  O      0.322310    1.127210   -3.309010
  O      0.226010    0.732180    3.366360

----------------------------
CARTESIAN COORDINATES (A.U.)
----------------------------
  NO LB      ZA    FRAG     MASS         X           Y           Z
   0 Ta   13.0000*   0   180.948    0.517577    1.757691    0.054235
   1 C     6.0000    0    12.011    4.704511    1.753912    0.112892
   2 C     6.0000    0    12.011    0.518031    5.938030    0.295383
   3 C     6.0000    0    12.011   -3.669489    1.762302   -0.004309
   4 C     6.0000    0    12.011    0.516557   -2.422893   -0.186875
   5 O     8.0000    0    15.999    0.518182    8.066296    0.417100
   6 O     8.0000    0    15.999    6.835971    1.752192    0.142485
   7 O     8.0000    0    15.999   -5.800798    1.764853   -0.033864
   8 O     8.0000    0    15.999    0.515952   -4.550857   -0.308630
   9 C     6.0000    0    12.011    0.577973    2.003903   -4.125404
  10 C     6.0000    0    12.011    0.457711    1.510553    4.234007
  11 O     8.0000    0    15.999    0.609078    2.130118   -6.253123
  12 O     8.0000    0    15.999    0.427097    1.383620    6.361498
* core charge reduced due to ECP

--------------------------------
INTERNAL COORDINATES (ANGSTROEM)
--------------------------------
 Ta     0   0   0     0.000000000000     0.00000000     0.00000000
 C      1   0   0     2.215848320283     0.00000000     0.00000000
 C      1   2   0     2.215817625460    89.99920081     0.00000000
 C      1   2   3     2.215917914545   179.98851604   355.41026516
 C      1   2   3     2.215946310857    90.00854493   180.00081865
 O      3   1   2     1.128070329102   179.97162699    95.13502279
 O      2   1   3     1.128029073251   179.99094805   304.06012416
 O      4   1   3     1.127949244292   179.99143531   313.12793118
 O      5   1   2     1.127911775007   179.97379569    94.21598319
 C      1   2   3     2.215834709224    89.97785615    89.93017691
 C      1   2   3     2.215929424959    90.01486706   269.91763624
 O     10   1   2     1.128039325245   179.97459310   292.29368827
 O     11   1   2     1.127938349955   179.96917132   262.95720684

---------------------------
INTERNAL COORDINATES (A.U.)
---------------------------
 Ta     0   0   0     0.000000000000     0.00000000     0.00000000
 C      1   0   0     4.187346479644     0.00000000     0.00000000
 C      1   2   0     4.187288474835    89.99920081     0.00000000
 C      1   2   3     4.187477993739   179.98851604   355.41026516
 C      1   2   3     4.187531654993    90.00854493   180.00081865
 O      3   1   2     2.131743981805   179.97162699    95.13502279
 O      2   1   3     2.131666019546   179.99094805   304.06012416
 O      4   1   3     2.131515164676   179.99143531   313.12793118
 O      5   1   2     2.131444357989   179.97379569    94.21598319
 C      1   2   3     4.187320758470    89.97785615    89.93017691
 C      1   2   3     4.187499745270    90.01486706   269.91763624
 O     10   1   2     2.131685393007   179.97459310   292.29368827
 O     11   1   2     2.131494577363   179.96917132   262.95720684

---------------------
BASIS SET INFORMATION
---------------------
There are 3 groups of distinct atoms

 Group   1 Type Ta  : 9s8p5d1f contracted to 6s5p3d1f pattern {411111/41111/311/1}
 Group   2 Type C   : 12s6p3d1f contracted to 6s3p3d1f pattern {621111/411/111/1}
 Group   3 Type O   : 12s7p3d1f contracted to 6s4p3d1f pattern {621111/4111/111/1}

Atom   0Ta   basis set group =>   1
Atom   1C    basis set group =>   2
Atom   2C    basis set group =>   2
Atom   3C    basis set group =>   2
Atom   4C    basis set group =>   2
Atom   5O    basis set group =>   3
Atom   6O    basis set group =>   3
Atom   7O    basis set group =>   3
Atom   8O    basis set group =>   3
Atom   9C    basis set group =>   2
Atom  10C    basis set group =>   2
Atom  11O    basis set group =>   3
Atom  12O    basis set group =>   3
---------------------------------
AUXILIARY/J BASIS SET INFORMATION
---------------------------------
There are 3 groups of distinct atoms

 Group   1 Type Ta  : 11s5p5d3f3g contracted to 8s5p5d2f3g pattern {41111111/11111/11111/21/111}
 Group   2 Type C   : 12s5p4d2f1g contracted to 6s4p3d1f1g pattern {711111/2111/211/2/1}
 Group   3 Type O   : 12s5p4d2f1g contracted to 6s4p3d1f1g pattern {711111/2111/211/2/1}

Atom   0Ta   basis set group =>   1
Atom   1C    basis set group =>   2
Atom   2C    basis set group =>   2
Atom   3C    basis set group =>   2
Atom   4C    basis set group =>   2
Atom   5O    basis set group =>   3
Atom   6O    basis set group =>   3
Atom   7O    basis set group =>   3
Atom   8O    basis set group =>   3
Atom   9C    basis set group =>   2
Atom  10C    basis set group =>   2
Atom  11O    basis set group =>   3
Atom  12O    basis set group =>   3
-------------------------
ECP PARAMETER INFORMATION
-------------------------

 Group 1, Type Ta ECP Def2-ECP (replacing 60 core electrons, lmax=3)

Atom   0Ta   ECP group =>   1



           ************************************************************
           *        Program running with 8 parallel MPI-processes     *
           *              working on a common directory               *
           ************************************************************
------------------------------------------------------------------------------
                           ORCA GTO INTEGRAL CALCULATION
                           -- RI-GTO INTEGRALS CHOSEN --
------------------------------------------------------------------------------
------------------------------------------------------------------------------
                   ___                                                        
                  /   \      - P O W E R E D   B Y -                         
                 /     \                                                     
                 |  |  |   _    _      __       _____    __    __             
                 |  |  |  | |  | |    /  \     |  _  \  |  |  /  |          
                  \  \/   | |  | |   /    \    | | | |  |  | /  /          
                 / \  \   | |__| |  /  /\  \   | |_| |  |  |/  /          
                |  |  |   |  __  | /  /__\  \  |    /   |      \           
                |  |  |   | |  | | |   __   |  |    \   |  |\   \          
                \     /   | |  | | |  |  |  |  | |\  \  |  | \   \       
                 \___/    |_|  |_| |__|  |__|  |_| \__\ |__|  \__/        
                                                                              
                      - O R C A' S   B I G   F R I E N D -                    
                                      &                                       
                       - I N T E G R A L  F E E D E R -                       
                                                                              
 v1 FN, 2020, v2 2021                                                         
------------------------------------------------------------------------------


Reading SHARK input file TaCO6.SHARKINP.tmp ... ok
----------------------
SHARK INTEGRAL PACKAGE
----------------------

Number of atoms                             ...     13
Number of basis functions                   ...    505
Number of shells                            ...    177
Maximum angular momentum                    ...      3
Integral batch strategy                     ... SHARK/LIBINT Hybrid
RI-J (if used) integral strategy            ... SPLIT-RIJ (Revised 2003 algorithm where possible)
Printlevel                                  ...      1
Contraction scheme used                     ... SEGMENTED contraction
Coulomb Range Separation                    ... NOT USED
Exchange Range Separation                   ... NOT USED
Finite Nucleus Model                        ... NOT USED
Auxiliary Coulomb fitting basis             ... AVAILABLE
   # of basis functions in Aux-J            ...    677
   # of shells in Aux-J                     ...    203
   Maximum angular momentum in Aux-J        ...      4
Auxiliary J/K fitting basis                 ... NOT available
Auxiliary Correlation fitting basis         ... NOT available
Auxiliary 'external' fitting basis          ... NOT available
Integral threshold                          ...     2.500000e-11
Primitive cut-off                           ...     2.500000e-12
Primitive pair pre-selection threshold      ...     2.500000e-12

Calculating pre-screening integrals         ... done (  0.1 sec) Dimension = 177
Organizing shell pair data                  ... done (  0.2 sec)
Shell pair information
Total number of shell pairs                 ...     15753
Shell pairs after pre-screening             ...     13347
Total number of primitive shell pairs       ...     43350
Primitive shell pairs kept                  ...     26742
          la=0 lb=0:   2413 shell pairs
          la=1 lb=0:   3216 shell pairs
          la=1 lb=1:   1044 shell pairs
          la=2 lb=0:   2534 shell pairs
          la=2 lb=1:   1659 shell pairs
          la=2 lb=2:    693 shell pairs
          la=3 lb=0:    756 shell pairs
          la=3 lb=1:    557 shell pairs
          la=3 lb=2:    405 shell pairs
          la=3 lb=3:     70 shell pairs

Calculating one electron integrals          ... done (  0.0 sec)
Calculating ECP integrals                   ... done (  1.3 sec)
Calculating RI/J V-Matrix + Cholesky decomp.... done (  0.1 sec)
Calculating Nuclear repulsion               ... done (  0.0 sec) ENN=    711.982322470546 Eh

SHARK setup successfully completed in   2.1 seconds

Maximum memory used throughout the entire GTOINT-calculation: 25.4 MB


           ************************************************************
           *        Program running with 8 parallel MPI-processes     *
           *              working on a common directory               *
           ************************************************************
-------------------------------------------------------------------------------
                                 ORCA SCF
-------------------------------------------------------------------------------

------------
SCF SETTINGS
------------
Hamiltonian:
 Density Functional     Method          .... DFT(GTOs)
 Exchange Functional    Exchange        .... B88
   X-Alpha parameter    XAlpha          ....  0.666667
   Becke's b parameter  XBeta           ....  0.004200
 Correlation Functional Correlation     .... LYP
 LDA part of GGA corr.  LDAOpt          .... VWN-5
 Gradients option       PostSCFGGA      .... off
 Hybrid DFT is turned on
   Fraction HF Exchange ScalHFX         ....  0.200000
   Scaling of DF-GGA-X  ScalDFX         ....  0.720000
   Scaling of DF-GGA-C  ScalDFC         ....  0.810000
   Scaling of DF-LDA-C  ScalLDAC        ....  1.000000
   Perturbative correction              ....  0.000000
   Density functional embedding theory  .... OFF
   NL short-range parameter             ....  4.800000
 RI-approximation to the Coulomb term is turned on
   Number of AuxJ basis functions       .... 677
   RIJ-COSX (HFX calculated with COS-X)).... on


General Settings:
 Integral files         IntName         .... TaCO6
 Hartree-Fock type      HFTyp           .... UHF
 Total Charge           Charge          ....    0
 Multiplicity           Mult            ....    2
 Number of Electrons    NEL             ....   97
 Basis Dimension        Dim             ....  505
 Nuclear Repulsion      ENuc            ....    711.9823224705 Eh

Convergence Acceleration:
 DIIS                   CNVDIIS         .... on
   Start iteration      DIISMaxIt       ....    12
   Startup error        DIISStart       ....  0.200000
   # of expansion vecs  DIISMaxEq       ....     5
   Bias factor          DIISBfac        ....   1.050
   Max. coefficient     DIISMaxC        ....  10.000
 Trust-Rad. Augm. Hess. CNVTRAH         .... auto
   Auto Start mean grad. ratio tolernc. ....  1.125000
   Auto Start start iteration           ....    20
   Auto Start num. interpolation iter.  ....    10
   Max. Number of Micro iterations      ....    16
   Max. Number of Macro iterations      .... Maxiter - #DIIS iter
   Number of Davidson start vectors     ....     2
   Converg. threshold I  (grad. norm)   ....   1.000e-05
   Converg. threshold II (energy diff.) ....   1.000e-08
   Grad. Scal. Fac. for Micro threshold ....   0.100
   Minimum threshold for Micro iter.    ....   0.010
   NR start threshold (gradient norm)   ....   0.001
   Initial trust radius                 ....   0.400
   Minimum AH scaling param. (alpha)    ....   1.000
   Maximum AH scaling param. (alpha)    .... 1000.000
   Orbital update algorithm             .... Taylor
   White noise on init. David. guess    .... on
   Maximum white noise                  ....   0.010
   Quad. conv. algorithm                .... NR
 SOSCF                  CNVSOSCF        .... off
 Level Shifting         CNVShift        .... on
   Level shift para.    LevelShift      ....    0.2500
   Turn off err/grad.   ShiftErr        ....    0.0010
 Zerner damping         CNVZerner       .... off
 Static damping         CNVDamp         .... on
   Fraction old density DampFac         ....    0.7000
   Max. Damping (<1)    DampMax         ....    0.9800
   Min. Damping (>=0)   DampMin         ....    0.0000
   Turn off err/grad.   DampErr         ....    0.1000
 Fernandez-Rico         CNVRico         .... off

SCF Procedure:
 Maximum # iterations   MaxIter         ....   300
 SCF integral mode      SCFMode         .... Direct
   Integral package                     .... SHARK and LIBINT hybrid scheme
 Reset frequency        DirectResetFreq ....    20
 Integral Threshold     Thresh          ....  2.500e-11 Eh
 Primitive CutOff       TCut            ....  2.500e-12 Eh

Convergence Tolerance:
 Convergence Check Mode ConvCheckMode   .... Total+1el-Energy
 Convergence forced     ConvForced      .... 0
 Energy Change          TolE            ....  1.000e-08 Eh
 1-El. energy change                    ....  1.000e-05 Eh
 DIIS Error             TolErr          ....  5.000e-07


Diagonalization of the overlap matrix:
Smallest eigenvalue                        ... 8.319e-06
Time for diagonalization                   ...    0.086 sec
Threshold for overlap eigenvalues          ... 1.000e-08
Number of eigenvalues below threshold      ... 0
Time for construction of square roots      ...    0.134 sec
Total time needed                          ...    0.221 sec

Time for model grid setup =    0.159 sec

------------------------------
INITIAL GUESS: MODEL POTENTIAL
------------------------------
Loading Hartree-Fock densities                     ... done
  calling C:\orca_5_0_4\orca TaCO6_atom73.inp > TaCO6_atom73.out in order to generate an atomic fitting density for atom 0 (Ta with ECP) on-the-fly... 
    atom 0 (Ta), assumed electronic state with S=4: 1s2 2s2 2p6 3s2 3p6 4s2 3d10 4p6 5s2 4d10 5p6 6s2 4f14 5d3           ... done
Calculating cut-offs                               ... done
Initializing the effective Hamiltonian             ... done
Setting up the integral package (SHARK)            ... done
Starting the Coulomb interaction                   ... done (   0.2 sec)
Reading the grid                                   ... done
Mapping shells                                     ... done
Starting the XC term evaluation                    ... done (   0.3 sec)
  promolecular density results
     # of electrons  =    157.003646095
     EX              =   -398.172728214
     EC              =     -6.920238422
     EX+EC           =   -405.092966636
Transforming the Hamiltonian                       ... done (   0.1 sec)
Diagonalizing the Hamiltonian                      ... done (   0.1 sec)
Back transforming the eigenvectors                 ... done (   0.1 sec)
Now organizing SCF variables                       ... done
                      ------------------
                      INITIAL GUESS DONE (   4.7 sec)
                      ------------------
-------------------
DFT GRID GENERATION
-------------------

General Integration Accuracy     IntAcc      ... 4.388
Radial Grid Type                 RadialGrid  ... OptM3 with GC (2021)
Angular Grid (max. ang.)         AngularGrid ... 4 (Lebedev-302)
Angular grid pruning method      GridPruning ... 4 (adaptive)
Weight generation scheme         WeightScheme... Becke
Basis function cutoff            BFCut       ... 1.0000e-11
Integration weight cutoff        WCut        ... 1.0000e-14
Angular grids for H and He will be reduced by one unit
Partially contracted basis set               ... off
Rotationally invariant grid construction     ... off

Total number of grid points                  ...    87795
Total number of batches                      ...     1377
Average number of points per batch           ...       63
Average number of grid points per atom       ...     6753
Time for grid setup =    0.790 sec

--------------------
COSX GRID GENERATION
--------------------

GRIDX 1
-------
General Integration Accuracy     IntAcc      ... 3.816
Radial Grid Type                 RadialGrid  ... OptM3 with GC (2021)
Angular Grid (max. ang.)         AngularGrid ... 1 (Lebedev-50)
Angular grid pruning method      GridPruning ... 4 (adaptive)
Weight generation scheme         WeightScheme... Becke
Basis function cutoff            BFCut       ... 1.0000e-11
Integration weight cutoff        WCut        ... 1.0000e-14
Angular grids for H and He will be reduced by one unit
Partially contracted basis set               ... on
Rotationally invariant grid construction     ... off

Total number of grid points                  ...    10822
Total number of batches                      ...      174
Average number of points per batch           ...       62
Average number of grid points per atom       ...      832
UseSFitting                                  ... on

GRIDX 2
-------
General Integration Accuracy     IntAcc      ... 4.020
Radial Grid Type                 RadialGrid  ... OptM3 with GC (2021)
Angular Grid (max. ang.)         AngularGrid ... 2 (Lebedev-110)
Angular grid pruning method      GridPruning ... 4 (adaptive)
Weight generation scheme         WeightScheme... Becke
Basis function cutoff            BFCut       ... 1.0000e-11
Integration weight cutoff        WCut        ... 1.0000e-14
Angular grids for H and He will be reduced by one unit
Partially contracted basis set               ... on
Rotationally invariant grid construction     ... off

Total number of grid points                  ...    30001
Total number of batches                      ...      472
Average number of points per batch           ...       63
Average number of grid points per atom       ...     2308
UseSFitting                                  ... on

GRIDX 3
-------
General Integration Accuracy     IntAcc      ... 4.338
Radial Grid Type                 RadialGrid  ... OptM3 with GC (2021)
Angular Grid (max. ang.)         AngularGrid ... 3 (Lebedev-194)
Angular grid pruning method      GridPruning ... 4 (adaptive)
Weight generation scheme         WeightScheme... Becke
Basis function cutoff            BFCut       ... 1.0000e-11
Integration weight cutoff        WCut        ... 1.0000e-14
Angular grids for H and He will be reduced by one unit
Partially contracted basis set               ... on
Rotationally invariant grid construction     ... off

Total number of grid points                  ...    63355
Total number of batches                      ...      997
Average number of points per batch           ...       63
Average number of grid points per atom       ...     4873
UseSFitting                                  ... on

Time for X-Grid setup             =    2.163 sec

--------------
SCF ITERATIONS
--------------
ITER       Energy         Delta-E        Max-DP      RMS-DP      [F,P]     Damp
               ***  Starting incremental Fock matrix formation  ***
  0   -736.2318938140   0.000000000000 0.20047344  0.00093204  0.2369185 0.7000
  1   -736.6473007638  -0.415406949795 0.12460976  0.00060691  0.1397201 0.7000
                               ***Turning on DIIS***
  2   -736.7786601519  -0.131359388145 0.22515709  0.00114038  0.0882339 0.0000
  3   -736.9139986946  -0.135338542707 0.08184783  0.00037203  0.0791638 0.0000
  4   -737.0123876781  -0.098388983482 0.00632122  0.00011453  0.0165387 0.0000
  5   -737.0174766301  -0.005088952058 0.00495021  0.00004982  0.0089761 0.0000
  6   -737.0188275238  -0.001350893656 0.00408314  0.00003033  0.0017953 0.0000
  7   -737.0189954909  -0.000167967091 0.00332903  0.00001566  0.0010922 0.0000
  8   -737.0190286926  -0.000033201702 0.00188407  0.00001167  0.0004050 0.0000
               *** Restarting incremental Fock matrix formation ***
                                   *** Resetting DIIS ***
  9   -737.0191340616  -0.000105368959 0.00134007  0.00002047  0.0002665 0.0000
 10   -737.0191420569  -0.000007995321 0.00038997  0.00000365  0.0004398 0.0000
 11   -737.0191481219  -0.000006065006 0.00097234  0.00000845  0.0002675 0.0000
 12   -737.0191574280  -0.000009306113 0.00085831  0.00000783  0.0002520 0.0000
 13   -737.0191655043  -0.000008076322 0.00275840  0.00002459  0.0002497 0.0000
 14   -737.0191894900  -0.000023985644 0.00136824  0.00001189  0.0002287 0.0000
 15   -737.0191999025  -0.000010412499 0.00418625  0.00003736  0.0002182 0.0000
 16   -737.0192301351  -0.000030232646 0.00274794  0.00002396  0.0001824 0.0000
 17   -737.0192464923  -0.000016357227 0.00555891  0.00004912  0.0001612 0.0000
 18   -737.0192721380  -0.000025645646 0.00099774  0.00000955  0.0001169 0.0000
 19   -737.0192687001   0.000003437901 0.00583203  0.00005171  0.0001190 0.0000
 20   -737.0192865611  -0.000017861051 0.00264926  0.00002402  0.0000796 0.0000
 21   -737.0192912302  -0.000004669079 0.00068512  0.00000680  0.0000537 0.0000
 22   -737.0192921777  -0.000000947527 0.00163948  0.00001505  0.0000363 0.0000
 23   -737.0192934159  -0.000001238193 0.00049511  0.00000453  0.0000233 0.0000
 24   -737.0192936142  -0.000000198251 0.00015110  0.00000152  0.0000210 0.0000
 25   -737.0192936752  -0.000000061064 0.00039063  0.00000367  0.0000136 0.0000
 26   -737.0192937448  -0.000000069594 0.00012618  0.00000131  0.0000116 0.0000
 27   -737.0192937610  -0.000000016132 0.00004953  0.00000049  0.0000109 0.0000
 28   -737.0192937615  -0.000000000518 0.00018214  0.00000140  0.0000109 0.0000
               *** Restarting incremental Fock matrix formation ***
                                   *** Resetting DIIS ***
 29   -737.0192937519   0.000000009597 0.00016352  0.00000149  0.0000107 0.0000
 30   -737.0192937646  -0.000000012672 0.00002763  0.00000024  0.0000101 0.0000
 31   -737.0192937798  -0.000000015226 0.00006857  0.00000093  0.0000102 0.0000

 WARNING: the maximum gradient error descreased on average only by a factor   1.1
          during the last 20 iterations

                      *** Initiating the TRAH-SCF procedure ***


TRAH GRIDX
----------

General Integration Accuracy     IntAcc      ... 3.067
Radial Grid Type                 RadialGrid  ... OptM3 with GC (2021)
Angular Grid (max. ang.)         AngularGrid ... 1 (Lebedev-50)
Angular grid pruning method      GridPruning ... 4 (adaptive)
Weight generation scheme         WeightScheme... Becke
Basis function cutoff            BFCut       ... 1.0000e-11
Integration weight cutoff        WCut        ... 1.0000e-14
Angular grids for H and He will be reduced by one unit
Partially contracted basis set               ... on
Rotationally invariant grid construction     ... off

Total number of grid points                  ...     6172
Total number of batches                      ...       99
Average number of points per batch           ...       62
Average number of grid points per atom       ...      475


TRAH GRID
---------

General Integration Accuracy     IntAcc      ... 3.467
Radial Grid Type                 RadialGrid  ... OptM3 with GC (2021)
Angular Grid (max. ang.)         AngularGrid ... 1 (Lebedev-50)
Angular grid pruning method      GridPruning ... 4 (adaptive)
Weight generation scheme         WeightScheme... Becke
Basis function cutoff            BFCut       ... 1.0000e-11
Integration weight cutoff        WCut        ... 1.0000e-14
Angular grids for H and He will be reduced by one unit
Partially contracted basis set               ... off
Rotationally invariant grid construction     ... off

Total number of grid points                  ...    17120
Total number of batches                      ...      272
Average number of points per batch           ...       62
Average number of grid points per atom       ...     1317

 --------------------------------------------------------------------------------------------
   Iter.        energy            ||Error||_2        Shift      TRadius  Mac/Mic        Rej.
 --------------------------------------------------------------------------------------------
    0       -737.019293779018     3.154766e-05                     0.400 (TRAH MAcro)   No
    0     dE    -4.946206e-10     5.233150e-05    -4.9840e-10      0.000 (TRAH MIcro)
    0     dE    -1.079653e-07     2.646429e-04    -1.0796e-07      0.006 (TRAH MIcro)
    0     dE    -1.515430e-07     1.565643e-04    -1.5153e-07      0.009 (TRAH MIcro)
    0     dE    -1.613780e-07     9.617524e-05    -1.6136e-07      0.009 (TRAH MIcro)
    0     dE    -1.640073e-07     1.744945e-05    -1.6399e-07      0.009 (TRAH MIcro)
    0     dE    -1.641080e-07     8.299946e-06    -1.6409e-07      0.009 (TRAH MIcro)
    0     dE    -1.641328e-07     2.516772e-06    -1.6412e-07      0.009 (TRAH MIcro)
    0     dE    -1.641404e-07     2.072978e-06    -1.6413e-07      0.009 (TRAH MIcro)
    0     dE    -1.641418e-07     1.444264e-06    -1.6413e-07      0.009 (TRAH MIcro)
    0     dE    -1.641427e-07     1.392254e-06    -1.6413e-07      0.009 (TRAH MIcro)
    0     dE    -1.641431e-07     1.427728e-06    -1.6413e-07      0.009 (TRAH MIcro)
    0     dE    -1.641436e-07     1.535555e-06    -1.6413e-07      0.009 (TRAH MIcro)
    0     dE    -1.641438e-07     1.292001e-06    -1.6413e-07      0.009 (TRAH MIcro)
    0     dE    -1.641439e-07     1.205149e-06    -1.6413e-07      0.009 (TRAH MIcro)
    1       -737.019293938243     1.187379e-05                           (NR   MAcro)
    1     dE    -1.656409e-10     3.755918e-06                           (NR   MIcro)
    1     dE    -1.743958e-10     1.166752e-06                           (NR   MIcro)
    1     dE    -1.751278e-10     4.989409e-07                           (NR   MIcro)
    2       -737.019293938432     5.120066e-07                           (NR   MAcro)

               *****************************************************
               *                     SUCCESS                       *
               *           SCF CONVERGED AFTER  52 CYCLES          *
               *****************************************************

Old exchange energy                            =    -17.219392479 Eh
New exchange energy                            =    -17.219361758 Eh
Exchange energy change after final integration =      0.000030721 Eh
Total energy after final integration           =   -737.019263218 Eh
Final COS-X integration done in                =    12.525 sec

----------------
TOTAL SCF ENERGY
----------------

Total Energy       :         -737.01926322 Eh          -20055.31374 eV

Components:
Nuclear Repulsion  :          711.98232247 Eh           19374.02395 eV
Electronic Energy  :        -1449.00158569 Eh          -39429.33770 eV
One Electron Energy:        -2438.32812902 Eh          -66350.28157 eV
Two Electron Energy:          989.32654333 Eh           26920.94388 eV
Max COSX asymmetry :            0.00000027 Eh               0.00001 eV

Virial components:
Potential Energy   :        -1434.19157940 Eh          -39026.33694 eV
Kinetic Energy     :          697.17231618 Eh           18971.02319 eV
Virial Ratio       :            2.05715509


DFT components:
N(Alpha)           :       49.000066655605 electrons
N(Beta)            :       48.000044530722 electrons
N(Total)           :       97.000111186327 electrons
E(X)               :      -68.895251118089 Eh       
E(C)               :       -3.980963551716 Eh       
E(XC)              :      -72.876214669804 Eh       
DFET-embed. en.    :        0.000000000000 Eh       

---------------
SCF CONVERGENCE
---------------

  Last Energy change         ...   -1.8917e-10  Tolerance :   1.0000e-08
  Last Orbital Gradient      ...    5.1201e-07  Tolerance :   1.0000e-05
  Last Orbital Rotation      ...    1.9728e-05

             **** THE GBW FILE WAS UPDATED (TaCO6.gbw) ****
             **** DENSITY TaCO6.scfp WAS UPDATED ****
             **** ENERGY FILE WAS UPDATED (TaCO6.en.tmp) ****
----------------------
UHF SPIN CONTAMINATION
----------------------

Warning: in a DFT calculation there is little theoretical justification to 
         calculate <S**2> as in Hartree-Fock theory. We will do it anyways
         but you should keep in mind that the values have only limited relevance

Expectation value of <S**2>     :     0.752362
Ideal value S*(S+1) for S=0.5   :     0.750000
Deviation                       :     0.002362

             **** THE GBW FILE WAS UPDATED (TaCO6.gbw) ****
             **** DENSITY TaCO6.scfp WAS UPDATED ****
----------------
ORBITAL ENERGIES
----------------
                 SPIN UP ORBITALS
  NO   OCC          E(Eh)            E(eV) 
   0   1.0000     -19.227209      -523.1990 
   1   1.0000     -19.227191      -523.1985 
   2   1.0000     -19.227163      -523.1977 
   3   1.0000     -19.227135      -523.1970 
   4   1.0000     -19.227110      -523.1963 
   5   1.0000     -19.227064      -523.1950 
   6   1.0000     -10.298541      -280.2375 
   7   1.0000     -10.298537      -280.2374 
   8   1.0000     -10.298501      -280.2365 
   9   1.0000     -10.298496      -280.2363 
  10   1.0000     -10.298458      -280.2353 
  11   1.0000     -10.298452      -280.2351 
  12   1.0000      -2.707022       -73.6618 
  13   1.0000      -1.465130       -39.8682 
  14   1.0000      -1.450191       -39.4617 
  15   1.0000      -1.450110       -39.4595 
  16   1.0000      -1.166631       -31.7457 
  17   1.0000      -1.166303       -31.7367 
  18   1.0000      -1.166265       -31.7357 
  19   1.0000      -1.166236       -31.7349 
  20   1.0000      -1.166192       -31.7337 
  21   1.0000      -1.166112       -31.7315 
  22   1.0000      -0.602291       -16.3892 
  23   1.0000      -0.582352       -15.8466 
  24   1.0000      -0.582297       -15.8451 
  25   1.0000      -0.579947       -15.7812 
  26   1.0000      -0.579735       -15.7754 
  27   1.0000      -0.579686       -15.7741 
  28   1.0000      -0.507221       -13.8022 
  29   1.0000      -0.492198       -13.3934 
  30   1.0000      -0.489777       -13.3275 
  31   1.0000      -0.489748       -13.3267 
  32   1.0000      -0.487866       -13.2755 
  33   1.0000      -0.485554       -13.2126 
  34   1.0000      -0.485525       -13.2118 
  35   1.0000      -0.482034       -13.1168 
  36   1.0000      -0.482002       -13.1160 
  37   1.0000      -0.480100       -13.0642 
  38   1.0000      -0.478960       -13.0332 
  39   1.0000      -0.478927       -13.0323 
  40   1.0000      -0.476695       -12.9715 
  41   1.0000      -0.463584       -12.6148 
  42   1.0000      -0.463526       -12.6132 
  43   1.0000      -0.426367       -11.6020 
  44   1.0000      -0.425266       -11.5721 
  45   1.0000      -0.425206       -11.5705 
  46   1.0000      -0.226884        -6.1738 
  47   1.0000      -0.215752        -5.8709 
  48   1.0000      -0.215689        -5.8692 
  49   0.0000      -0.077311        -2.1038 
  50   0.0000      -0.073735        -2.0064 
  51   0.0000      -0.073707        -2.0057 
  52   0.0000      -0.050909        -1.3853 
  53   0.0000      -0.050838        -1.3834 
  54   0.0000      -0.047747        -1.2993 
  55   0.0000      -0.011975        -0.3259 
  56   0.0000      -0.011929        -0.3246 
  57   0.0000      -0.009100        -0.2476 
  58   0.0000      -0.004353        -0.1184 
  59   0.0000       0.017904         0.4872 
  60   0.0000       0.018951         0.5157 
  61   0.0000       0.018965         0.5161 
  62   0.0000       0.033579         0.9137 
  63   0.0000       0.034525         0.9395 
  64   0.0000       0.034541         0.9399 
  65   0.0000       0.042522         1.1571 
  66   0.0000       0.042535         1.1574 
  67   0.0000       0.056668         1.5420 
  68   0.0000       0.059337         1.6146 
  69   0.0000       0.059347         1.6149 
  70   0.0000       0.074374         2.0238 
  71   0.0000       0.074582         2.0295 
  72   0.0000       0.074599         2.0299 
  73   0.0000       0.081780         2.2253 
  74   0.0000       0.084482         2.2989 
  75   0.0000       0.084511         2.2996 
  76   0.0000       0.089306         2.4301 
  77   0.0000       0.089337         2.4310 
  78   0.0000       0.089936         2.4473 
  79   0.0000       0.122220         3.3258 
  80   0.0000       0.126072         3.4306 
  81   0.0000       0.126079         3.4308 
  82   0.0000       0.126453         3.4410 
  83   0.0000       0.133657         3.6370 
  84   0.0000       0.134189         3.6515 
  85   0.0000       0.134245         3.6530 
  86   0.0000       0.134247         3.6531 
  87   0.0000       0.134253         3.6532 
  88   0.0000       0.168124         4.5749 
  89   0.0000       0.168566         4.5869 
  90   0.0000       0.168579         4.5873 
  91   0.0000       0.181215         4.9311 
  92   0.0000       0.203265         5.5311 
  93   0.0000       0.205439         5.5903 
  94   0.0000       0.205452         5.5906 
  95   0.0000       0.218191         5.9373 
  96   0.0000       0.218204         5.9376 
  97   0.0000       0.232292         6.3210 
  98   0.0000       0.232318         6.3217 
  99   0.0000       0.233433         6.3520 
 100   0.0000       0.233910         6.3650 
 101   0.0000       0.234392         6.3781 
 102   0.0000       0.235203         6.4002 
 103   0.0000       0.235280         6.4023 
 104   0.0000       0.249518         6.7897 
 105   0.0000       0.267560         7.2807 
 106   0.0000       0.267679         7.2839 
 107   0.0000       0.267817         7.2877 
 108   0.0000       0.273768         7.4496 
 109   0.0000       0.273799         7.4504 
 110   0.0000       0.289457         7.8765 
 111   0.0000       0.290509         7.9051 
 112   0.0000       0.290571         7.9068 
 113   0.0000       0.298457         8.1214 
 114   0.0000       0.298470         8.1218 
 115   0.0000       0.333422         9.0729 
 116   0.0000       0.333436         9.0733 
 117   0.0000       0.333514         9.0754 
 118   0.0000       0.335163         9.1203 
 119   0.0000       0.335210         9.1215 
 120   0.0000       0.335343         9.1251 
 121   0.0000       0.337790         9.1917 
 122   0.0000       0.337880         9.1942 
 123   0.0000       0.338751         9.2179 
 124   0.0000       0.339174         9.2294 
 125   0.0000       0.339281         9.2323 
 126   0.0000       0.354358         9.6426 
 127   0.0000       0.363549         9.8927 
 128   0.0000       0.363877         9.9016 
 129   0.0000       0.363997         9.9049 
 130   0.0000       0.401430        10.9235 
 131   0.0000       0.425704        11.5840 
 132   0.0000       0.426616        11.6088 
 133   0.0000       0.426628        11.6091 
 134   0.0000       0.455303        12.3894 
 135   0.0000       0.456384        12.4188 
 136   0.0000       0.456513        12.4224 
 137   0.0000       0.472538        12.8584 
 138   0.0000       0.473385        12.8815 
 139   0.0000       0.473457        12.8834 
 140   0.0000       0.475905        12.9500 
 141   0.0000       0.484246        13.1770 
 142   0.0000       0.490934        13.3590 
 143   0.0000       0.491399        13.3717 
 144   0.0000       0.491498        13.3743 
 145   0.0000       0.511696        13.9240 
 146   0.0000       0.511836        13.9278 
 147   0.0000       0.514118        13.9899 
 148   0.0000       0.515414        14.0251 
 149   0.0000       0.515843        14.0368 
 150   0.0000       0.515891        14.0381 
 151   0.0000       0.540892        14.7184 
 152   0.0000       0.541017        14.7218 
 153   0.0000       0.543262        14.7829 
 154   0.0000       0.544280        14.8106 
 155   0.0000       0.544308        14.8114 
 156   0.0000       0.548212        14.9176 
 157   0.0000       0.548262        14.9190 
 158   0.0000       0.553263        15.0551 
 159   0.0000       0.553292        15.0558 
 160   0.0000       0.554098        15.0778 
 161   0.0000       0.558207        15.1896 
 162   0.0000       0.568227        15.4622 
 163   0.0000       0.568858        15.4794 
 164   0.0000       0.568866        15.4796 
 165   0.0000       0.640414        17.4266 
 166   0.0000       0.640463        17.4279 
 167   0.0000       0.651735        17.7346 
 168   0.0000       0.651765        17.7354 
 169   0.0000       0.654590        17.8123 
 170   0.0000       0.655479        17.8365 
 171   0.0000       0.655553        17.8385 
 172   0.0000       0.664439        18.0803 
 173   0.0000       0.664749        18.0887 
 174   0.0000       0.666844        18.1458 
 175   0.0000       0.666854        18.1460 
 176   0.0000       0.667601        18.1664 
 177   0.0000       0.667627        18.1671 
 178   0.0000       0.683851        18.6085 
 179   0.0000       0.683862        18.6088 
 180   0.0000       0.694377        18.8949 
 181   0.0000       0.694778        18.9059 
 182   0.0000       0.696131        18.9427 
 183   0.0000       0.727030        19.7835 
 184   0.0000       0.727127        19.7861 
 185   0.0000       0.728581        19.8257 
 186   0.0000       0.729572        19.8527 
 187   0.0000       0.730735        19.8843 
 188   0.0000       0.770401        20.9637 
 189   0.0000       0.770880        20.9767 
 190   0.0000       0.770925        20.9779 
 191   0.0000       0.774744        21.0819 
 192   0.0000       0.774752        21.0821 
 193   0.0000       0.817029        22.2325 
 194   0.0000       0.817048        22.2330 
 195   0.0000       0.827889        22.5280 
 196   0.0000       0.837026        22.7766 
 197   0.0000       0.837061        22.7776 
 198   0.0000       0.847876        23.0719 
 199   0.0000       0.849129        23.1060 
 200   0.0000       0.849819        23.1248 
 201   0.0000       0.849891        23.1267 
 202   0.0000       0.856630        23.3101 
 203   0.0000       0.856879        23.3169 
 204   0.0000       0.861471        23.4418 
 205   0.0000       0.871059        23.7027 
 206   0.0000       0.873190        23.7607 
 207   0.0000       0.873683        23.7741 
 208   0.0000       0.873861        23.7790 
 209   0.0000       0.893404        24.3108 
 210   0.0000       0.894949        24.3528 
 211   0.0000       0.894951        24.3529 
 212   0.0000       0.904265        24.6063 
 213   0.0000       0.926251        25.2046 
 214   0.0000       0.926357        25.2075 
 215   0.0000       0.926518        25.2118 
 216   0.0000       0.950360        25.8606 
 217   0.0000       0.950388        25.8614 
 218   0.0000       0.952146        25.9092 
 219   0.0000       0.963919        26.2296 
 220   0.0000       0.966026        26.2869 
 221   0.0000       0.966193        26.2914 
 222   0.0000       0.992516        27.0077 
 223   0.0000       0.992652        27.0114 
 224   0.0000       0.993860        27.0443 
 225   0.0000       1.017331        27.6830 
 226   0.0000       1.017474        27.6869 
 227   0.0000       1.051685        28.6178 
 228   0.0000       1.068483        29.0749 
 229   0.0000       1.068527        29.0761 
 230   0.0000       1.071669        29.1616 
 231   0.0000       1.088007        29.6062 
 232   0.0000       1.088506        29.6198 
 233   0.0000       1.089341        29.6425 
 234   0.0000       1.141391        31.0588 
 235   0.0000       1.145695        31.1759 
 236   0.0000       1.146262        31.1914 
 237   0.0000       1.168409        31.7940 
 238   0.0000       1.172111        31.8948 
 239   0.0000       1.172195        31.8970 
 240   0.0000       1.265901        34.4469 
 241   0.0000       1.266058        34.4512 
 242   0.0000       1.266230        34.4559 
 243   0.0000       1.286662        35.0119 
 244   0.0000       1.307207        35.5709 
 245   0.0000       1.307227        35.5715 
 246   0.0000       1.333363        36.2827 
 247   0.0000       1.333511        36.2867 
 248   0.0000       1.396789        38.0086 
 249   0.0000       1.396837        38.0099 
 250   0.0000       1.396908        38.0118 
 251   0.0000       1.402785        38.1717 
 252   0.0000       1.403217        38.1835 
 253   0.0000       1.403246        38.1843 
 254   0.0000       1.576436        42.8970 
 255   0.0000       1.576474        42.8980 
 256   0.0000       1.582034        43.0493 
 257   0.0000       1.590290        43.2740 
 258   0.0000       1.590519        43.2802 
 259   0.0000       1.689289        45.9679 
 260   0.0000       1.689318        45.9687 
 261   0.0000       1.690934        46.0127 
 262   0.0000       1.695022        46.1239 
 263   0.0000       1.696739        46.1706 
 264   0.0000       1.696986        46.1773 
 265   0.0000       1.718734        46.7691 
 266   0.0000       1.718806        46.7711 
 267   0.0000       1.718936        46.7746 
 268   0.0000       1.751096        47.6497 
 269   0.0000       1.751369        47.6572 
 270   0.0000       1.751966        47.6734 
 271   0.0000       1.753395        47.7123 
 272   0.0000       1.753456        47.7140 
 273   0.0000       1.762640        47.9639 
 274   0.0000       1.762817        47.9687 
 275   0.0000       1.762864        47.9700 
 276   0.0000       1.767433        48.0943 
 277   0.0000       1.801650        49.0254 
 278   0.0000       1.807234        49.1773 
 279   0.0000       1.807753        49.1915 
 280   0.0000       1.841489        50.1095 
 281   0.0000       1.846718        50.2518 
 282   0.0000       1.847112        50.2625 
 283   0.0000       1.849749        50.3342 
 284   0.0000       1.861910        50.6652 
 285   0.0000       1.874262        51.0013 
 286   0.0000       1.875633        51.0386 
 287   0.0000       1.875817        51.0436 
 288   0.0000       1.943809        52.8937 
 289   0.0000       1.943877        52.8956 
 290   0.0000       1.967980        53.5515 
 291   0.0000       1.968048        53.5533 
 292   0.0000       1.974602        53.7317 
 293   0.0000       1.978243        53.8307 
 294   0.0000       1.979139        53.8551 
 295   0.0000       2.097393        57.0730 
 296   0.0000       2.097425        57.0738 
 297   0.0000       2.099493        57.1301 
 298   0.0000       2.166372        58.9500 
 299   0.0000       2.166424        58.9514 
 300   0.0000       2.169087        59.0238 
 301   0.0000       2.193731        59.6945 
 302   0.0000       2.197539        59.7981 
 303   0.0000       2.197666        59.8015 
 304   0.0000       2.208648        60.1004 
 305   0.0000       2.209922        60.1350 
 306   0.0000       2.210093        60.1397 
 307   0.0000       2.212862        60.2150 
 308   0.0000       2.375128        64.6305 
 309   0.0000       2.404037        65.4172 
 310   0.0000       2.404275        65.4237 
 311   0.0000       2.404297        65.4242 
 312   0.0000       2.404922        65.4412 
 313   0.0000       2.405109        65.4463 
 314   0.0000       2.501617        68.0724 
 315   0.0000       2.501631        68.0728 
 316   0.0000       2.576623        70.1135 
 317   0.0000       2.577392        70.1344 
 318   0.0000       2.577438        70.1357 
 319   0.0000       2.578664        70.1690 
 320   0.0000       2.634306        71.6831 
 321   0.0000       2.634410        71.6859 
 322   0.0000       2.634427        71.6864 
 323   0.0000       2.667586        72.5887 
 324   0.0000       2.667741        72.5929 
 325   0.0000       2.668278        72.6075 
 326   0.0000       2.670227        72.6606 
 327   0.0000       2.670390        72.6650 
 328   0.0000       2.670577        72.6701 
 329   0.0000       2.733307        74.3771 
 330   0.0000       2.733355        74.3784 
 331   0.0000       2.733423        74.3802 
 332   0.0000       2.806099        76.3578 
 333   0.0000       2.806165        76.3596 
 334   0.0000       2.808593        76.4257 
 335   0.0000       2.809451        76.4490 
 336   0.0000       2.809510        76.4506 
 337   0.0000       2.844577        77.4049 
 338   0.0000       2.876152        78.2641 
 339   0.0000       2.876194        78.2652 
 340   0.0000       2.876477        78.2729 
 341   0.0000       2.907343        79.1128 
 342   0.0000       2.909309        79.1663 
 343   0.0000       2.909364        79.1678 
 344   0.0000       2.911632        79.2295 
 345   0.0000       2.940108        80.0044 
 346   0.0000       2.940413        80.0127 
 347   0.0000       2.942099        80.0586 
 348   0.0000       2.957978        80.4907 
 349   0.0000       2.960590        80.5618 
 350   0.0000       2.960892        80.5700 
 351   0.0000       2.999871        81.6306 
 352   0.0000       3.002403        81.6995 
 353   0.0000       3.002494        81.7020 
 354   0.0000       3.025125        82.3178 
 355   0.0000       3.057315        83.1938 
 356   0.0000       3.057381        83.1956 
 357   0.0000       3.068438        83.4964 
 358   0.0000       3.069269        83.5191 
 359   0.0000       3.069294        83.5197 
 360   0.0000       3.081658        83.8562 
 361   0.0000       3.081729        83.8581 
 362   0.0000       3.121333        84.9358 
 363   0.0000       3.121666        84.9448 
 364   0.0000       3.121781        84.9480 
 365   0.0000       3.121886        84.9508 
 366   0.0000       3.183085        86.6161 
 367   0.0000       3.183307        86.6222 
 368   0.0000       3.185088        86.6706 
 369   0.0000       3.215231        87.4909 
 370   0.0000       3.217397        87.5498 
 371   0.0000       3.217673        87.5573 
 372   0.0000       3.218006        87.5664 
 373   0.0000       3.218035        87.5672 
 374   0.0000       3.218677        87.5847 
 375   0.0000       3.266509        88.8862 
 376   0.0000       3.266558        88.8876 
 377   0.0000       3.269220        88.9600 
 378   0.0000       3.335846        90.7730 
 379   0.0000       3.336569        90.7927 
 380   0.0000       3.336690        90.7960 
 381   0.0000       3.391080        92.2760 
 382   0.0000       3.391113        92.2769 
 383   0.0000       3.428975        93.3072 
 384   0.0000       3.469595        94.4125 
 385   0.0000       3.469683        94.4149 
 386   0.0000       3.474811        94.5544 
 387   0.0000       3.474850        94.5555 
 388   0.0000       3.475011        94.5599 
 389   0.0000       3.564060        96.9830 
 390   0.0000       3.590798        97.7106 
 391   0.0000       3.590839        97.7117 
 392   0.0000       3.639268        99.0295 
 393   0.0000       3.639336        99.0314 
 394   0.0000       3.641575        99.0923 
 395   0.0000       3.736121       101.6650 
 396   0.0000       3.738414       101.7274 
 397   0.0000       3.738722       101.7358 
 398   0.0000       3.741801       101.8196 
 399   0.0000       3.742209       101.8307 
 400   0.0000       3.744631       101.8966 
 401   0.0000       3.750745       102.0630 
 402   0.0000       3.753920       102.1493 
 403   0.0000       3.754050       102.1529 
 404   0.0000       4.122495       112.1788 
 405   0.0000       4.251751       115.6960 
 406   0.0000       4.251783       115.6969 
 407   0.0000       4.353691       118.4699 
 408   0.0000       4.353908       118.4759 
 409   0.0000       4.354290       118.4862 
 410   0.0000       4.397861       119.6719 
 411   0.0000       4.461400       121.4009 
 412   0.0000       4.461435       121.4018 
 413   0.0000       4.548406       123.7684 
 414   0.0000       4.548733       123.7773 
 415   0.0000       4.548889       123.7816 
 416   0.0000       5.074348       138.0800 
 417   0.0000       5.074376       138.0808 
 418   0.0000       5.074408       138.0817 
 419   0.0000       5.074438       138.0825 
 420   0.0000       5.074458       138.0830 
 421   0.0000       5.074488       138.0838 
 422   0.0000       5.074662       138.0886 
 423   0.0000       5.074701       138.0896 
 424   0.0000       5.074711       138.0899 
 425   0.0000       5.075358       138.1075 
 426   0.0000       5.075389       138.1084 
 427   0.0000       5.075420       138.1092 
 428   0.0000       5.494186       149.5044 
 429   0.0000       5.494241       149.5059 
 430   0.0000       5.497952       149.6069 
 431   0.0000       5.498001       149.6082 
 432   0.0000       5.498075       149.6102 
 433   0.0000       5.498089       149.6106 
 434   0.0000       5.501215       149.6957 
 435   0.0000       5.501259       149.6969 
 436   0.0000       5.501331       149.6988 
 437   0.0000       5.509010       149.9078 
 438   0.0000       5.525742       150.3631 
 439   0.0000       5.525802       150.3647 
 440   0.0000       6.200805       168.7325 
 441   0.0000       6.200849       168.7337 
 442   0.0000       6.202960       168.7911 
 443   0.0000       6.274678       170.7427 
 444   0.0000       6.276625       170.7957 
 445   0.0000       6.276664       170.7967 
 446   0.0000       6.281897       170.9391 
 447   0.0000       6.281956       170.9407 
 448   0.0000       6.283853       170.9923 
 449   0.0000       6.290587       171.1756 
 450   0.0000       6.293039       171.2423 
 451   0.0000       6.293173       171.2460 
 452   0.0000       6.373631       173.4353 
 453   0.0000       6.373708       173.4374 
 454   0.0000       6.373893       173.4424 
 455   0.0000       6.379558       173.5966 
 456   0.0000       6.401815       174.2022 
 457   0.0000       6.401883       174.2041 
 458   0.0000       6.405881       174.3129 
 459   0.0000       6.406054       174.3176 
 460   0.0000       6.406376       174.3263 
 461   0.0000       6.424726       174.8257 
 462   0.0000       6.424789       174.8274 
 463   0.0000       6.456293       175.6847 
 464   0.0000       6.592958       179.4035 
 465   0.0000       6.611938       179.9200 
 466   0.0000       6.611988       179.9213 
 467   0.0000       6.636510       180.5886 
 468   0.0000       6.636559       180.5899 
 469   0.0000       6.636618       180.5916 
 470   0.0000       6.787612       184.7003 
 471   0.0000       6.787962       184.7098 
 472   0.0000       6.790295       184.7733 
 473   0.0000       6.813280       185.3988 
 474   0.0000       6.815249       185.4524 
 475   0.0000       6.815267       185.4528 
 476   0.0000       6.827990       185.7991 
 477   0.0000       6.828029       185.8001 
 478   0.0000       6.829981       185.8532 
 479   0.0000       6.841830       186.1757 
 480   0.0000       6.843804       186.2294 
 481   0.0000       6.843850       186.2306 
 482   0.0000       7.163985       194.9419 
 483   0.0000       7.164011       194.9427 
 484   0.0000       7.164142       194.9462 
 485   0.0000       7.174512       195.2284 
 486   0.0000       7.174568       195.2299 
 487   0.0000       7.189553       195.6377 
 488   0.0000      22.873548       622.4209 
 489   0.0000      22.877200       622.5203 
 490   0.0000      22.877258       622.5218 
 491   0.0000      22.989571       625.5780 
 492   0.0000      22.990377       625.6000 
 493   0.0000      22.991205       625.6225 
 494   0.0000      44.050584      1198.6773 
 495   0.0000      44.051144      1198.6926 
 496   0.0000      44.051691      1198.7074 
 497   0.0000      44.132489      1200.9061 
 498   0.0000      44.219866      1203.2837 
 499   0.0000      44.219936      1203.2856 
 500   0.0000      46.802349      1273.5567 
 501   0.0000      46.815033      1273.9018 
 502   0.0000      46.824204      1274.1514 
 503   0.0000      79.171687      2154.3711 
 504   0.0000     676.588754     18410.9160 

                 SPIN DOWN ORBITALS
  NO   OCC          E(Eh)            E(eV) 
   0   1.0000     -19.226072      -523.1680 
   1   1.0000     -19.226053      -523.1675 
   2   1.0000     -19.226030      -523.1669 
   3   1.0000     -19.226002      -523.1661 
   4   1.0000     -19.225983      -523.1656 
   5   1.0000     -19.225936      -523.1643 
   6   1.0000     -10.298559      -280.2380 
   7   1.0000     -10.298555      -280.2379 
   8   1.0000     -10.298520      -280.2370 
   9   1.0000     -10.298516      -280.2369 
  10   1.0000     -10.298478      -280.2358 
  11   1.0000     -10.298471      -280.2356 
  12   1.0000      -2.697638       -73.4065 
  13   1.0000      -1.443175       -39.2708 
  14   1.0000      -1.441589       -39.2276 
  15   1.0000      -1.441571       -39.2271 
  16   1.0000      -1.164835       -31.6968 
  17   1.0000      -1.164504       -31.6878 
  18   1.0000      -1.164474       -31.6869 
  19   1.0000      -1.164448       -31.6862 
  20   1.0000      -1.164398       -31.6849 
  21   1.0000      -1.164327       -31.6829 
  22   1.0000      -0.598808       -16.2944 
  23   1.0000      -0.580404       -15.7936 
  24   1.0000      -0.580358       -15.7923 
  25   1.0000      -0.577909       -15.7257 
  26   1.0000      -0.577870       -15.7247 
  27   1.0000      -0.577826       -15.7234 
  28   1.0000      -0.503405       -13.6984 
  29   1.0000      -0.487881       -13.2759 
  30   1.0000      -0.487845       -13.2749 
  31   1.0000      -0.485179       -13.2024 
  32   1.0000      -0.483466       -13.1558 
  33   1.0000      -0.483410       -13.1543 
  34   1.0000      -0.481974       -13.1152 
  35   1.0000      -0.479686       -13.0529 
  36   1.0000      -0.477855       -13.0031 
  37   1.0000      -0.477830       -13.0024 
  38   1.0000      -0.476289       -12.9605 
  39   1.0000      -0.474562       -12.9135 
  40   1.0000      -0.474547       -12.9131 
  41   1.0000      -0.460817       -12.5395 
  42   1.0000      -0.460763       -12.5380 
  43   1.0000      -0.422960       -11.5093 
  44   1.0000      -0.422913       -11.5080 
  45   1.0000      -0.422683       -11.5018 
  46   1.0000      -0.209660        -5.7051 
  47   1.0000      -0.209599        -5.7035 
  48   0.0000      -0.158894        -4.3237 
  49   0.0000      -0.071480        -1.9451 
  50   0.0000      -0.071409        -1.9431 
  51   0.0000      -0.065595        -1.7849 
  52   0.0000      -0.047657        -1.2968 
  53   0.0000      -0.043201        -1.1756 
  54   0.0000      -0.043132        -1.1737 
  55   0.0000      -0.009655        -0.2627 
  56   0.0000      -0.006594        -0.1794 
  57   0.0000      -0.006586        -0.1792 
  58   0.0000      -0.004004        -0.1090 
  59   0.0000       0.018171         0.4945 
  60   0.0000       0.019041         0.5181 
  61   0.0000       0.019055         0.5185 
  62   0.0000       0.035360         0.9622 
  63   0.0000       0.035376         0.9626 
  64   0.0000       0.045823         1.2469 
  65   0.0000       0.045836         1.2473 
  66   0.0000       0.050036         1.3616 
  67   0.0000       0.061053         1.6613 
  68   0.0000       0.061060         1.6615 
  69   0.0000       0.068857         1.8737 
  70   0.0000       0.074528         2.0280 
  71   0.0000       0.074626         2.0307 
  72   0.0000       0.074642         2.0311 
  73   0.0000       0.082056         2.2329 
  74   0.0000       0.087994         2.3944 
  75   0.0000       0.088026         2.3953 
  76   0.0000       0.089394         2.4325 
  77   0.0000       0.089425         2.4334 
  78   0.0000       0.089982         2.4485 
  79   0.0000       0.124523         3.3885 
  80   0.0000       0.126381         3.4390 
  81   0.0000       0.126386         3.4391 
  82   0.0000       0.126490         3.4420 
  83   0.0000       0.133937         3.6446 
  84   0.0000       0.134227         3.6525 
  85   0.0000       0.134289         3.6542 
  86   0.0000       0.135327         3.6824 
  87   0.0000       0.135331         3.6825 
  88   0.0000       0.168455         4.5839 
  89   0.0000       0.168617         4.5883 
  90   0.0000       0.168631         4.5887 
  91   0.0000       0.183163         4.9841 
  92   0.0000       0.204669         5.5693 
  93   0.0000       0.205729         5.5982 
  94   0.0000       0.205742         5.5985 
  95   0.0000       0.218604         5.9485 
  96   0.0000       0.218616         5.9488 
  97   0.0000       0.232406         6.3241 
  98   0.0000       0.232431         6.3248 
  99   0.0000       0.233517         6.3543 
 100   0.0000       0.235229         6.4009 
 101   0.0000       0.235390         6.4053 
 102   0.0000       0.235463         6.4073 
 103   0.0000       0.239128         6.5070 
 104   0.0000       0.252083         6.8595 
 105   0.0000       0.267454         7.2778 
 106   0.0000       0.267575         7.2811 
 107   0.0000       0.268153         7.2968 
 108   0.0000       0.274354         7.4656 
 109   0.0000       0.274378         7.4662 
 110   0.0000       0.290532         7.9058 
 111   0.0000       0.290651         7.9090 
 112   0.0000       0.290708         7.9106 
 113   0.0000       0.298263         8.1162 
 114   0.0000       0.298277         8.1165 
 115   0.0000       0.333576         9.0771 
 116   0.0000       0.333675         9.0797 
 117   0.0000       0.334210         9.0943 
 118   0.0000       0.335131         9.1194 
 119   0.0000       0.335377         9.1261 
 120   0.0000       0.335519         9.1299 
 121   0.0000       0.337814         9.1924 
 122   0.0000       0.337918         9.1952 
 123   0.0000       0.338673         9.2158 
 124   0.0000       0.339303         9.2329 
 125   0.0000       0.339418         9.2360 
 126   0.0000       0.363814         9.8999 
 127   0.0000       0.367065         9.9883 
 128   0.0000       0.367378         9.9969 
 129   0.0000       0.367658        10.0045 
 130   0.0000       0.401904        10.9364 
 131   0.0000       0.426992        11.6190 
 132   0.0000       0.427002        11.6193 
 133   0.0000       0.427209        11.6249 
 134   0.0000       0.456650        12.4261 
 135   0.0000       0.456838        12.4312 
 136   0.0000       0.456959        12.4345 
 137   0.0000       0.475166        12.9299 
 138   0.0000       0.476405        12.9636 
 139   0.0000       0.476465        12.9653 
 140   0.0000       0.477683        12.9984 
 141   0.0000       0.491443        13.3728 
 142   0.0000       0.492778        13.4092 
 143   0.0000       0.492936        13.4135 
 144   0.0000       0.493812        13.4373 
 145   0.0000       0.514087        13.9890 
 146   0.0000       0.514222        13.9927 
 147   0.0000       0.515788        14.0353 
 148   0.0000       0.516173        14.0458 
 149   0.0000       0.516708        14.0603 
 150   0.0000       0.516770        14.0620 
 151   0.0000       0.542320        14.7573 
 152   0.0000       0.542438        14.7605 
 153   0.0000       0.545551        14.8452 
 154   0.0000       0.545725        14.8499 
 155   0.0000       0.545817        14.8524 
 156   0.0000       0.548826        14.9343 
 157   0.0000       0.548881        14.9358 
 158   0.0000       0.553530        15.0623 
 159   0.0000       0.553557        15.0631 
 160   0.0000       0.553877        15.0718 
 161   0.0000       0.559077        15.2133 
 162   0.0000       0.569670        15.5015 
 163   0.0000       0.569682        15.5018 
 164   0.0000       0.570259        15.5175 
 165   0.0000       0.642748        17.4901 
 166   0.0000       0.642795        17.4913 
 167   0.0000       0.652332        17.7509 
 168   0.0000       0.652369        17.7519 
 169   0.0000       0.655819        17.8458 
 170   0.0000       0.655905        17.8481 
 171   0.0000       0.656327        17.8596 
 172   0.0000       0.668196        18.1825 
 173   0.0000       0.668216        18.1831 
 174   0.0000       0.668651        18.1949 
 175   0.0000       0.669150        18.2085 
 176   0.0000       0.669182        18.2094 
 177   0.0000       0.669204        18.2100 
 178   0.0000       0.684431        18.6243 
 179   0.0000       0.684440        18.6246 
 180   0.0000       0.694643        18.9022 
 181   0.0000       0.695039        18.9130 
 182   0.0000       0.696168        18.9437 
 183   0.0000       0.728119        19.8131 
 184   0.0000       0.728229        19.8161 
 185   0.0000       0.729387        19.8476 
 186   0.0000       0.731051        19.8929 
 187   0.0000       0.737143        20.0587 
 188   0.0000       0.771506        20.9938 
 189   0.0000       0.771545        20.9948 
 190   0.0000       0.772160        21.0116 
 191   0.0000       0.774751        21.0821 
 192   0.0000       0.774762        21.0823 
 193   0.0000       0.817583        22.2476 
 194   0.0000       0.817599        22.2480 
 195   0.0000       0.829588        22.5742 
 196   0.0000       0.838095        22.8057 
 197   0.0000       0.838120        22.8064 
 198   0.0000       0.849297        23.1106 
 199   0.0000       0.850645        23.1472 
 200   0.0000       0.850717        23.1492 
 201   0.0000       0.850891        23.1539 
 202   0.0000       0.864527        23.5250 
 203   0.0000       0.864844        23.5336 
 204   0.0000       0.865065        23.5396 
 205   0.0000       0.871766        23.7220 
 206   0.0000       0.873397        23.7663 
 207   0.0000       0.873874        23.7793 
 208   0.0000       0.874048        23.7841 
 209   0.0000       0.896390        24.3920 
 210   0.0000       0.896396        24.3922 
 211   0.0000       0.897690        24.4274 
 212   0.0000       0.904561        24.6144 
 213   0.0000       0.926666        25.2159 
 214   0.0000       0.927041        25.2261 
 215   0.0000       0.927238        25.2314 
 216   0.0000       0.951913        25.9029 
 217   0.0000       0.951945        25.9038 
 218   0.0000       0.952255        25.9122 
 219   0.0000       0.967047        26.3147 
 220   0.0000       0.967211        26.3192 
 221   0.0000       0.967453        26.3257 
 222   0.0000       0.994381        27.0585 
 223   0.0000       0.994517        27.0622 
 224   0.0000       0.994645        27.0657 
 225   0.0000       1.018387        27.7117 
 226   0.0000       1.018556        27.7163 
 227   0.0000       1.065866        29.0037 
 228   0.0000       1.071733        29.1633 
 229   0.0000       1.072234        29.1770 
 230   0.0000       1.072257        29.1776 
 231   0.0000       1.090657        29.6783 
 232   0.0000       1.091219        29.6936 
 233   0.0000       1.094511        29.7832 
 234   0.0000       1.146898        31.2087 
 235   0.0000       1.147387        31.2220 
 236   0.0000       1.147585        31.2274 
 237   0.0000       1.173729        31.9388 
 238   0.0000       1.174860        31.9696 
 239   0.0000       1.174954        31.9721 
 240   0.0000       1.266779        34.4708 
 241   0.0000       1.266857        34.4729 
 242   0.0000       1.266962        34.4758 
 243   0.0000       1.287346        35.0305 
 244   0.0000       1.307748        35.5856 
 245   0.0000       1.307767        35.5861 
 246   0.0000       1.334945        36.3257 
 247   0.0000       1.335111        36.3302 
 248   0.0000       1.403803        38.1994 
 249   0.0000       1.403850        38.2007 
 250   0.0000       1.406635        38.2765 
[...]
     20      -0.039286  -0.022221  -0.026064  -0.040122  -0.120346  -0.004202
     21       0.229160  -0.232621   0.379076   0.092458  -0.007840   0.290882
     22       0.010729  -0.005872   0.030883  -0.036211  -0.135136   0.002023
     23      -0.039314  -0.022189   0.026044   0.040129   0.120345   0.004202
     24       0.000193  -0.007900  -0.052400  -0.021408   0.127140   0.001202
     25       0.287489  -0.227902  -0.262146   0.287174   0.030398   0.290926
     26      -0.031223  -0.031821  -0.005588   0.066809  -0.125756   0.019995
     27      -0.040409   0.047791   0.121492   0.066692   0.255294  -0.063622
     28      -0.033352   0.065192  -0.047236   0.154815  -0.257827  -0.080858
     29      -0.321900  -0.359410  -0.109530  -0.346213  -0.026709   0.270396
     30      -0.040396   0.047739  -0.121492  -0.066706  -0.255288   0.063589
     31      -0.033386   0.065178   0.047275  -0.154830   0.257817   0.080862
     32      -0.321913  -0.359196   0.109460   0.346389   0.026753  -0.270405
     33       0.048794   0.008253  -0.056538   0.004061  -0.123752  -0.001197
     34       0.067996   0.025918   0.049416  -0.016728   0.128237  -0.015080
     35      -0.302915  -0.366662  -0.110211  -0.373561  -0.005224   0.299071
     36       0.048776   0.008238   0.056555  -0.004049   0.123755   0.001196
     37       0.068017   0.025892  -0.049426   0.016708  -0.128243   0.015079
     38      -0.302928  -0.366442   0.110127   0.373735   0.005246  -0.299075
                 24         25         26         27         28         29    
      0      -0.000005   0.000004   0.000000   0.019763  -0.002204  -0.040794
      1       0.000003   0.000000  -0.000005  -0.013180  -0.016754  -0.037973
      2       0.000002  -0.000000   0.000000  -0.009892   0.018371  -0.042889
      3      -0.056682  -0.030985  -0.007895   0.008302  -0.002148   0.029013
      4      -0.262507   0.037019   0.390807   0.344630  -0.136904   0.239904
      5      -0.286318   0.230886  -0.285293   0.407024   0.029168   0.271257
      6      -0.279564   0.135336   0.353549  -0.143004  -0.352285   0.266802
      7      -0.054310   0.028125  -0.013937   0.007497   0.002102   0.019132
      8      -0.256849  -0.367457  -0.138718  -0.283769  -0.249747   0.279642
      9       0.056736   0.030968   0.007861   0.008379  -0.002167   0.029063
     10       0.262425  -0.036947  -0.390747   0.344758  -0.136850   0.239922
     11       0.286265  -0.230807   0.285369   0.407058   0.029058   0.271262
     12       0.279555  -0.135299  -0.353638  -0.142886  -0.352266   0.266821
     13       0.054279  -0.028131   0.013957   0.007533   0.002132   0.019107
     14       0.256845   0.367428   0.138627  -0.283847  -0.249749   0.279648
     15       0.097984  -0.051938  -0.117115   0.050570   0.134376  -0.096472
     16      -0.040577   0.024045  -0.039047   0.016901   0.024854  -0.000503
     17       0.086350   0.123945   0.051097   0.110677   0.092467  -0.101105
     18      -0.028247  -0.051586  -0.016767  -0.036202   0.004582  -0.003446
     19       0.090947  -0.006141  -0.133363  -0.128859   0.055298  -0.086845
     20       0.098439  -0.073154   0.100434  -0.153600  -0.014489  -0.098181
     21       0.028252   0.051575   0.016776  -0.036211   0.004589  -0.003449
     22      -0.090920   0.006108   0.133340  -0.128900   0.055281  -0.086855
     23      -0.098424   0.073124  -0.100467  -0.153614  -0.014453  -0.098184
     24      -0.097983   0.051924   0.117158   0.050533   0.134376  -0.096480
     25       0.040576  -0.024051   0.039054   0.016910   0.024848  -0.000500
     26      -0.086352  -0.123940  -0.051061   0.110706   0.092473  -0.101110
     27       0.273393  -0.287388   0.250433  -0.056524   0.373444   0.278958
     28       0.244987   0.390279   0.063696  -0.214958   0.298082   0.278164
     29       0.090514   0.022655  -0.011668  -0.019093   0.036622   0.056789
     30      -0.273353   0.287303  -0.250345  -0.056559   0.373586   0.278982
     31      -0.244927  -0.390330  -0.063672  -0.214923   0.298070   0.278179
     32      -0.090492  -0.022684   0.011690  -0.019107   0.036595   0.056770
     33      -0.096915   0.101461  -0.078670   0.017387  -0.140799  -0.100919
     34      -0.089794  -0.132769  -0.011600   0.083461  -0.108004  -0.101205
     35       0.031951  -0.015512  -0.046346   0.020687  -0.043728  -0.014384
     36       0.096902  -0.101432   0.078640   0.017403  -0.140851  -0.100929
     37       0.089774   0.132796   0.011593   0.083453  -0.108002  -0.101211
     38      -0.031964   0.015522   0.046338   0.020665  -0.043737  -0.014387
                 30         31         32         33         34         35    
      0      -0.000241  -0.057279   0.004031   0.000000   0.000000  -0.000086
      1       0.000677   0.030189   0.050650   0.000000  -0.000000   0.000264
      2      -0.000405   0.026969  -0.048390   0.000000  -0.000000   0.000124
      3      -0.002363   0.004323  -0.003536  -0.444495  -0.124564  -0.172099
      4      -0.292333  -0.096645  -0.389905   0.021679   0.002982   0.006454
      5       0.261414  -0.065207   0.357140   0.019131   0.008130   0.006977
      6       0.273805   0.360630  -0.145191  -0.002533  -0.022058  -0.022664
      7       0.012039   0.009859  -0.015845   0.115058   0.448535   0.500626
      8      -0.270111  -0.266698   0.277049  -0.003258  -0.001221  -0.002265
      9      -0.002396   0.004308  -0.003571   0.444900   0.124747  -0.171900
     10      -0.292358  -0.096658  -0.389914  -0.021751  -0.003004   0.006469
     11       0.261425  -0.065216   0.357144  -0.019164  -0.008140   0.006971
     12       0.273800   0.360628  -0.145199   0.002530   0.022059  -0.022610
     13       0.012029   0.009847  -0.015849  -0.115146  -0.449091   0.500077
     14      -0.270132  -0.266706   0.277056   0.003255   0.001212  -0.002250
     15      -0.095210  -0.118423   0.051124   0.003724   0.014821   0.016476
     16      -0.003910  -0.009450  -0.005238  -0.085434  -0.333281  -0.376615
     17       0.093960   0.090507  -0.089923   0.000132   0.000269   0.000739
     18       0.000299   0.010382  -0.000320   0.330487   0.092583   0.130338
     19       0.101709   0.029068   0.130044  -0.014409  -0.003980  -0.004926
     20      -0.090945   0.018349  -0.118715  -0.013468  -0.003843  -0.005047
     21       0.000302   0.010387  -0.000305  -0.330791  -0.092721   0.130190
     22       0.101717   0.029071   0.130049   0.014462   0.003996  -0.004935
     23      -0.090951   0.018352  -0.118718   0.013492   0.003851  -0.005046
     24      -0.095211  -0.118426   0.051128  -0.003722  -0.014821   0.016438
     25      -0.003911  -0.009445  -0.005243   0.085501   0.333699  -0.376206
     26       0.093969   0.090511  -0.089929  -0.000130  -0.000261   0.000728
     27      -0.266633   0.374508   0.098716   0.019368  -0.023042  -0.011845
     28       0.269884  -0.304360  -0.246148   0.041559  -0.036400  -0.024785
     29       0.014898  -0.017295  -0.011999  -0.328665   0.320466   0.195009
     30      -0.266650   0.374529   0.098723  -0.019378   0.023048  -0.011807
     31       0.269905  -0.304369  -0.246153  -0.041611   0.036449  -0.024743
     32       0.014919  -0.017317  -0.012004   0.329103  -0.320863   0.194642
     33       0.092680  -0.123183  -0.036050  -0.015146   0.014840   0.008780
     34      -0.093804   0.103318   0.078175  -0.028606   0.027784   0.017973
     35      -0.005387   0.000798   0.015182   0.244358  -0.238047  -0.146329
     36       0.092687  -0.123192  -0.036053   0.015153  -0.014844   0.008754
     37      -0.093815   0.103322   0.078178   0.028645  -0.027820   0.017941
     38      -0.005388   0.000805   0.015187  -0.244687   0.238345  -0.146056
                 36         37         38    
      0       0.000014   0.000293  -0.000000
      1       0.000108   0.000085   0.000000
      2      -0.000241   0.000087   0.000000
      3       0.030815   0.536285  -0.333487
      4      -0.002280  -0.024753   0.014250
      5       0.000170  -0.023469   0.013169
      6      -0.010291  -0.008457   0.014496
      7       0.214718   0.148730  -0.332377
      8       0.000770  -0.000587  -0.000188
      9       0.031128   0.535955   0.333468
     10      -0.002300  -0.024803  -0.014289
     11       0.000156  -0.023472  -0.013180
     12      -0.010285  -0.008450  -0.014477
     13       0.214786   0.148803   0.332350
     14       0.000778  -0.000586   0.000197
     15       0.007361   0.005803  -0.010303
     16      -0.162187  -0.111139   0.235116
     17      -0.000658   0.000215  -0.000027
     18      -0.023563  -0.403239   0.235953
     19       0.001484   0.017813  -0.010127
     20       0.000138   0.016683  -0.009449
     21      -0.023795  -0.402993  -0.235938
     22       0.001497   0.017851   0.010155
     23       0.000148   0.016686   0.009456
     24       0.007355   0.005799   0.010290
     25      -0.162236  -0.111193  -0.235096
     26      -0.000663   0.000212   0.000021
     27       0.033236  -0.007516  -0.020280
     28       0.061101  -0.011343  -0.038166
     29      -0.516888   0.093167   0.330345
     30       0.033186  -0.007494   0.020260
     31       0.061062  -0.011307   0.038163
     32      -0.516572   0.092879  -0.330323
     33      -0.024240   0.005165   0.014381
     34      -0.045261   0.008285   0.027146
     35       0.389223  -0.069271  -0.233601
     36      -0.024203   0.005148  -0.014367
     37      -0.045233   0.008260  -0.027145
     38       0.388986  -0.069058   0.233584


-----------
IR SPECTRUM
-----------

 Mode   freq       eps      Int      T**2         TX        TY        TZ
       cm**-1   L/(mol*cm) km/mol    a.u.
----------------------------------------------------------------------------
  6:     41.67   0.000056    0.28  0.000420  (-0.016762  0.008791  0.007866)
  7:     42.27   0.000056    0.28  0.000415  (-0.001541 -0.014797  0.013915)
  8:     58.68   0.000000    0.00  0.000002  (-0.001081 -0.000676 -0.000386)
  9:     59.68   0.000173    0.87  0.000904  (-0.016863 -0.016431 -0.018704)
 10:     68.45   0.000000    0.00  0.000000  ( 0.000010 -0.000015  0.000008)
 11:     68.91   0.000000    0.00  0.000000  (-0.000010 -0.000007  0.000020)
 12:     70.50   0.000000    0.00  0.000000  (-0.000028 -0.000008  0.000031)
 13:     71.18   0.000262    1.32  0.001149  (-0.027658  0.016609  0.010398)
 14:     71.58   0.000261    1.32  0.001137  (-0.004495 -0.022953  0.024280)
 15:    326.84   0.000000    0.00  0.000000  (-0.000015  0.000005  0.000002)
 16:    328.06   0.000000    0.00  0.000000  ( 0.000000  0.000007 -0.000000)
 17:    332.93   0.010675   53.95  0.010006  ( 0.074712 -0.065981 -0.008382)
 18:    333.77   0.010670   53.92  0.009976  ( 0.046220  0.061362 -0.063828)
 19:    335.80   0.007554   38.17  0.007020  (-0.036392 -0.032193 -0.068258)
 20:    338.31   0.000000    0.00  0.000000  ( 0.000014 -0.000019 -0.000009)
 21:    339.17   0.000000    0.00  0.000000  ( 0.000019  0.000003  0.000018)
 22:    344.19   0.000000    0.00  0.000000  ( 0.000008 -0.000002  0.000004)
 23:    377.94   0.000000    0.00  0.000000  ( 0.000000 -0.000003 -0.000001)
 24:    409.74   0.000000    0.00  0.000000  ( 0.000006 -0.000004  0.000000)
 25:    427.17   0.000000    0.00  0.000000  (-0.000003  0.000001 -0.000002)
 26:    427.56   0.000000    0.00  0.000000  (-0.000004  0.000004  0.000002)
 27:    441.40   0.000080    0.40  0.000057  (-0.004902  0.004429  0.003593)
 28:    442.64   0.000064    0.33  0.000045  ( 0.000342  0.004045 -0.005376)
 29:    467.32   0.007719   39.01  0.005155  ( 0.041081  0.038922  0.044182)
 30:    504.75   0.000008    0.04  0.000005  ( 0.000931 -0.001737  0.001147)
 31:    541.64   0.009247   46.73  0.005328  ( 0.059103 -0.031864 -0.028621)
 32:    542.16   0.008786   44.40  0.005057  (-0.003290 -0.051333  0.049106)
 33:   2033.57   0.000000    0.00  0.000000  ( 0.000094 -0.000041  0.000100)
 34:   2033.68   0.000000    0.00  0.000000  ( 0.000049 -0.000125 -0.000098)
 35:   2040.24   0.468223  2366.21  0.071617  (-0.095566  0.230095  0.097674)
 36:   2040.38   0.497869  2516.03  0.076146  ( 0.024359  0.126492 -0.244033)
 37:   2040.98   0.433537  2190.92  0.066287  ( 0.248437  0.056172  0.037566)
 38:   2159.13   0.000000    0.00  0.000000  (-0.000004 -0.000009  0.000005)

* The epsilon (eps) is given for a Dirac delta lineshape.
** The dipole moment derivative (T) already includes vibrational overlap.

The first frequency considered to be a vibration is 6
The total number of vibrations considered is 33


--------------------------
THERMOCHEMISTRY AT 298.15K
--------------------------

Temperature         ... 298.15 K
Pressure            ... 1.00 atm
Total Mass          ... 349.01 AMU

Throughout the following assumptions are being made:
  (1) The electronic state is orbitally nondegenerate
      but the spin degeneracy is treated
  (2) There are no thermally accessible electronically excited states
  (3) Hindered rotations indicated by low frequency modes are not
      treated as such but are treated as vibrations and this may
      cause some error
  (4) All equations used are the standard statistical mechanics
      equations for an ideal gas
  (5) All vibrations are strictly harmonic

freq.      41.67  E(vib)   ...       0.53 
freq.      42.27  E(vib)   ...       0.53 
freq.      58.68  E(vib)   ...       0.51 
freq.      59.68  E(vib)   ...       0.51 
freq.      68.45  E(vib)   ...       0.50 
freq.      68.91  E(vib)   ...       0.50 
freq.      70.50  E(vib)   ...       0.50 
freq.      71.18  E(vib)   ...       0.50 
freq.      71.58  E(vib)   ...       0.50 
freq.     326.84  E(vib)   ...       0.24 
freq.     328.06  E(vib)   ...       0.24 
freq.     332.93  E(vib)   ...       0.24 
freq.     333.77  E(vib)   ...       0.24 
freq.     335.80  E(vib)   ...       0.24 
freq.     338.31  E(vib)   ...       0.23 
freq.     339.17  E(vib)   ...       0.23 
freq.     344.19  E(vib)   ...       0.23 
freq.     377.94  E(vib)   ...       0.21 
freq.     409.74  E(vib)   ...       0.19 
freq.     427.17  E(vib)   ...       0.18 
freq.     427.56  E(vib)   ...       0.18 
freq.     441.40  E(vib)   ...       0.17 
freq.     442.64  E(vib)   ...       0.17 
freq.     467.32  E(vib)   ...       0.16 
freq.     504.75  E(vib)   ...       0.14 
freq.     541.64  E(vib)   ...       0.12 
freq.     542.16  E(vib)   ...       0.12 
freq.    2033.57  E(vib)   ...       0.00 
freq.    2033.68  E(vib)   ...       0.00 
freq.    2040.24  E(vib)   ...       0.00 
freq.    2040.38  E(vib)   ...       0.00 
freq.    2040.98  E(vib)   ...       0.00 
freq.    2159.13  E(vib)   ...       0.00 

------------
INNER ENERGY
------------

The inner energy is: U= E(el) + E(ZPE) + E(vib) + E(rot) + E(trans)
    E(el)   - is the total energy from the electronic structure calculation
              = E(kin-el) + E(nuc-el) + E(el-el) + E(nuc-nuc)
    E(ZPE)  - the the zero temperature vibrational energy from the frequency calculation
    E(vib)  - the the finite temperature correction to E(ZPE) due to population
              of excited vibrational states
    E(rot)  - is the rotational thermal energy
    E(trans)- is the translational thermal energy

Summary of contributions to the inner energy U:
Electronic energy                ...   -737.02712389 Eh
Zero point energy                ...      0.04593296 Eh      28.82 kcal/mol
Thermal vibrational correction   ...      0.01293262 Eh       8.12 kcal/mol
Thermal rotational correction    ...      0.00141627 Eh       0.89 kcal/mol
Thermal translational correction ...      0.00141627 Eh       0.89 kcal/mol
-----------------------------------------------------------------------
Total thermal energy                   -736.96542576 Eh


Summary of corrections to the electronic energy:
(perhaps to be used in another calculation)
Total thermal correction                  0.01576516 Eh       9.89 kcal/mol
Non-thermal (ZPE) correction              0.04593296 Eh      28.82 kcal/mol
-----------------------------------------------------------------------
Total correction                          0.06169813 Eh      38.72 kcal/mol


--------
ENTHALPY
--------

The enthalpy is H = U + kB*T
                kB is Boltzmann's constant
Total free energy                 ...   -736.96542576 Eh 
Thermal Enthalpy correction       ...      0.00094421 Eh       0.59 kcal/mol
-----------------------------------------------------------------------
Total Enthalpy                    ...   -736.96448156 Eh


Note: Only C1 symmetry has been detected, increase convergence thresholds 
      if your molecule has a higher symmetry. Symmetry factor of 1.0 is   
      used for the rotational entropy correction. 
 

Note: Rotational entropy computed according to Herzberg 
Infrared and Raman Spectra, Chapter V,1, Van Nostrand Reinhold, 1945 
Point Group:  C1, Symmetry Number:   1  
Rotational constants in cm-1:     0.019084     0.018937     0.016721 

Vibrational entropy computed according to the QRRHO of S. Grimme
Chem.Eur.J. 2012 18 9955


-------
ENTROPY
-------

The entropy contributions are T*S = T*(S(el)+S(vib)+S(rot)+S(trans))
     S(el)   - electronic entropy
     S(vib)  - vibrational entropy
     S(rot)  - rotational entropy
     S(trans)- translational entropy
The entropies will be listed as multiplied by the temperature to get
units of energy

Electronic entropy                ...      0.00065446 Eh      0.41 kcal/mol
Vibrational entropy               ...      0.02341464 Eh     14.69 kcal/mol
Rotational entropy                ...      0.01518377 Eh      9.53 kcal/mol
Translational entropy             ...      0.02064147 Eh     12.95 kcal/mol
-----------------------------------------------------------------------
Final entropy term                ...      0.05989435 Eh     37.58 kcal/mol

In case the symmetry of your molecule has not been determined correctly
or in case you have a reason to use a different symmetry number we print 
out the resulting rotational entropy values for sn=1,12 :
 --------------------------------------------------------
|  sn= 1 | S(rot)=       0.01518377 Eh      9.53 kcal/mol|
|  sn= 2 | S(rot)=       0.01452931 Eh      9.12 kcal/mol|
|  sn= 3 | S(rot)=       0.01414648 Eh      8.88 kcal/mol|
|  sn= 4 | S(rot)=       0.01387486 Eh      8.71 kcal/mol|
|  sn= 5 | S(rot)=       0.01366417 Eh      8.57 kcal/mol|
|  sn= 6 | S(rot)=       0.01349203 Eh      8.47 kcal/mol|
|  sn= 7 | S(rot)=       0.01334648 Eh      8.38 kcal/mol|
|  sn= 8 | S(rot)=       0.01322040 Eh      8.30 kcal/mol|
|  sn= 9 | S(rot)=       0.01310919 Eh      8.23 kcal/mol|
|  sn=10 | S(rot)=       0.01300971 Eh      8.16 kcal/mol|
|  sn=11 | S(rot)=       0.01291972 Eh      8.11 kcal/mol|
|  sn=12 | S(rot)=       0.01283757 Eh      8.06 kcal/mol|
 --------------------------------------------------------


-------------------
GIBBS FREE ENERGY
-------------------

The Gibbs free energy is G = H - T*S

Total enthalpy                    ...   -736.96448156 Eh 
Total entropy correction          ...     -0.05989435 Eh    -37.58 kcal/mol
-----------------------------------------------------------------------
Final Gibbs free energy         ...   -737.02437590 Eh

For completeness - the Gibbs free energy minus the electronic energy
G-E(el)                           ...      0.00274799 Eh      1.72 kcal/mol


Timings for individual modules:

Sum of individual times         ...     4019.329 sec (=  66.989 min)
GTO integral calculation        ...       21.955 sec (=   0.366 min)   0.5 %
SCF iterations                  ...     1364.107 sec (=  22.735 min)  33.9 %
SCF Gradient evaluation         ...      368.417 sec (=   6.140 min)   9.2 %
Geometry relaxation             ...        0.517 sec (=   0.009 min)   0.0 %
Analytical frequency calculation...     2264.333 sec (=  37.739 min)  56.3 %
                             ****ORCA TERMINATED NORMALLY****
TOTAL RUN TIME: 0 days 1 hours 7 minutes 1 seconds 523 msec
