
                                 *****************
                                 * O   R   C   A *
                                 *****************

                                            #,                                       
                                            ###                                      
                                            ####                                     
                                            #####                                    
                                            ######                                   
                                           ########,                                 
                                     ,,################,,,,,                         
                               ,,#################################,,                 
                          ,,##########################################,,             
                       ,#########################################, ''#####,          
                    ,#############################################,,   '####,        
                  ,##################################################,,,,####,       
                ,###########''''           ''''###############################       
              ,#####''   ,,,,##########,,,,          '''####'''          '####       
            ,##' ,,,,###########################,,,                        '##       
           ' ,,###''''                  '''############,,,                           
         ,,##''                                '''############,,,,        ,,,,,,###''
      ,#''                                            '''#######################'''  
     '                                                          ''''####''''         
             ,#######,   #######,   ,#######,      ##                                
            ,#'     '#,  ##    ##  ,#'     '#,    #''#        ######   ,####,        
            ##       ##  ##   ,#'  ##            #'  '#       #        #'  '#        
            ##       ##  #######   ##           ,######,      #####,   #    #        
            '#,     ,#'  ##    ##  '#,     ,#' ,#      #,         ##   #,  ,#        
             '#######'   ##     ##  '#######'  #'      '#     #####' # '####'        



                  #######################################################
                  #                        -***-                        #
                  #          Department of theory and spectroscopy      #
                  #    Directorship and core code : Frank Neese         #
                  #        Max Planck Institute fuer Kohlenforschung    #
                  #                Kaiser Wilhelm Platz 1               #
                  #                 D-45470 Muelheim/Ruhr               #
                  #                      Germany                        #
                  #                                                     #
                  #                  All rights reserved                #
                  #                        -***-                        #
                  #######################################################



                         Program Version 5.0.4 -  RELEASE  -

 With contributions from (in alphabetic order):
   Daniel Aravena         : Magnetic Suceptibility
   Michael Atanasov       : Ab Initio Ligand Field Theory (pilot matlab implementation)
   Alexander A. Auer      : GIAO ZORA, VPT2 properties, NMR spectrum
   Ute Becker             : Parallelization
   Giovanni Bistoni       : ED, misc. LED, open-shell LED, HFLD
   Martin Brehm           : Molecular dynamics
   Dmytro Bykov           : SCF Hessian
   Vijay G. Chilkuri      : MRCI spin determinant printing, contributions to CSF-ICE
   Dipayan Datta          : RHF DLPNO-CCSD density
   Achintya Kumar Dutta   : EOM-CC, STEOM-CC
   Dmitry Ganyushin       : Spin-Orbit,Spin-Spin,Magnetic field MRCI
   Miquel Garcia          : C-PCM and meta-GGA Hessian, CC/C-PCM, Gaussian charge scheme
   Yang Guo               : DLPNO-NEVPT2, F12-NEVPT2, CIM, IAO-localization
   Andreas Hansen         : Spin unrestricted coupled pair/coupled cluster methods
   Benjamin Helmich-Paris : MC-RPA, TRAH-SCF, COSX integrals
   Lee Huntington         : MR-EOM, pCC
   Robert Izsak           : Overlap fitted RIJCOSX, COSX-SCS-MP3, EOM
   Marcus Kettner         : VPT2
   Christian Kollmar      : KDIIS, OOCD, Brueckner-CCSD(T), CCSD density, CASPT2, CASPT2-K
   Simone Kossmann        : Meta GGA functionals, TD-DFT gradient, OOMP2, MP2 Hessian
   Martin Krupicka        : Initial AUTO-CI
   Lucas Lang             : DCDCAS
   Marvin Lechner         : AUTO-CI (C++ implementation), FIC-MRCC
   Dagmar Lenk            : GEPOL surface, SMD
   Dimitrios Liakos       : Extrapolation schemes; Compound Job, initial MDCI parallelization
   Dimitrios Manganas     : Further ROCIS development; embedding schemes
   Dimitrios Pantazis     : SARC Basis sets
   Anastasios Papadopoulos: AUTO-CI, single reference methods and gradients
   Taras Petrenko         : DFT Hessian,TD-DFT gradient, ASA, ECA, R-Raman, ABS, FL, XAS/XES, NRVS
   Peter Pinski           : DLPNO-MP2, DLPNO-MP2 Gradient
   Christoph Reimann      : Effective Core Potentials
   Marius Retegan         : Local ZFS, SOC
   Christoph Riplinger    : Optimizer, TS searches, QM/MM, DLPNO-CCSD(T), (RO)-DLPNO pert. Triples
   Tobias Risthaus        : Range-separated hybrids, TD-DFT gradient, RPA, STAB
   Michael Roemelt        : Original ROCIS implementation
   Masaaki Saitow         : Open-shell DLPNO-CCSD energy and density
   Barbara Sandhoefer     : DKH picture change effects
   Avijit Sen             : IP-ROCIS
   Kantharuban Sivalingam : CASSCF convergence, NEVPT2, FIC-MRCI
   Bernardo de Souza      : ESD, SOC TD-DFT
   Georgi Stoychev        : AutoAux, RI-MP2 NMR, DLPNO-MP2 response
   Willem Van den Heuvel  : Paramagnetic NMR
   Boris Wezisla          : Elementary symmetry handling
   Frank Wennmohs         : Technical directorship


 We gratefully acknowledge several colleagues who have allowed us to
 interface, adapt or use parts of their codes:
   Stefan Grimme, W. Hujo, H. Kruse, P. Pracht,  : VdW corrections, initial TS optimization,
                  C. Bannwarth, S. Ehlert          DFT functionals, gCP, sTDA/sTD-DF
   Ed Valeev, F. Pavosevic, A. Kumar             : LibInt (2-el integral package), F12 methods
   Garnet Chan, S. Sharma, J. Yang, R. Olivares  : DMRG
   Ulf Ekstrom                                   : XCFun DFT Library
   Mihaly Kallay                                 : mrcc  (arbitrary order and MRCC methods)
   Jiri Pittner, Ondrej Demel                    : Mk-CCSD
   Frank Weinhold                                : gennbo (NPA and NBO analysis)
   Christopher J. Cramer and Donald G. Truhlar   : smd solvation model
   Lars Goerigk                                  : TD-DFT with DH, B97 family of functionals
   V. Asgeirsson, H. Jonsson                     : NEB implementation
   FAccTs GmbH                                   : IRC, NEB, NEB-TS, DLPNO-Multilevel, CI-OPT
                                                   MM, QMMM, 2- and 3-layer-ONIOM, Crystal-QMMM,
                                                   LR-CPCM, SF, NACMEs, symmetry and pop. for TD-DFT,
                                                   nearIR, NL-DFT gradient (VV10), updates on ESD,
                                                   ML-optimized integration grids
   S Lehtola, MJT Oliveira, MAL Marques          : LibXC Library
   Liviu Ungur et al                             : ANISO software


 Your calculation uses the libint2 library for the computation of 2-el integrals
 For citations please refer to: http://libint.valeyev.net

 Your ORCA version has been built with support for libXC version: 5.1.0
 For citations please refer to: https://tddft.org/programs/libxc/

 This ORCA versions uses:
   CBLAS   interface :  Fast vector & matrix operations
   LAPACKE interface :  Fast linear algebra routines
   Shared memory     :  Shared parallel matrices


================================================================================

cite the ECPs for Ta [Def2-ECP] as follows:
Ce-Yb(ecp-28): M. Dolg, H. Stoll, H.Preuss, J. Chem. Phys., 1989, 90, 1730-1734.
Y-Cd(ecp-28), Hf-Hg(ecp-46): D. Andrae,U. Haeussermann, M. Dolg, H. Stoll, H. Preuss, Theor. Chim. Acta, 1990, 77, 123-141.
In-Sb(ecp-28), Tl-Bi(ecp-46): B. Metz, H. Stoll, M. Dolg, J. Chem. Phys., 2000, 113, 2563-2569.
Te-Xe(ecp-28), Po-Rn(ecp-46): K. A. Peterson, D. Figgen, E. Goll, H. Stoll, M. Dolg, J. Chem. Phys., 2003, 119, 11113-11123.
Rb(ecp-28), Cs(ecp-46): T. Leininger, A. Nicklass, W. Kuechle, H. Stoll, M. Dolg, A. Bergner, Chem. Phys. Lett., 1996, 255, 274-280.
Sr(ecp-28), Ba(ecp-46): M. Kaupp, P. V. Schleyer, H. Stoll and H. Preuss, J. Chem. Phys., 1991, 94, 1360-1366.
La(ecp-46): M. Dolg, H. Stoll, A. Savin, H. Preuss, Theor. Chim. Acta, 1989, 75, 173-194.
Lu(ecp-28): X. Cao, M. Dolg, J. Chem. Phys., 2001, 115, 7348-7355.

ECP parameters for Ta [Def2-ECP] have been obtained from:
TURBOMOLE (7.0.2)

----- Orbital basis set information -----
Your calculation utilizes the basis: def2-TZVPD
   F. Weigend and R. Ahlrichs, Phys. Chem. Chem. Phys. 7, 3297 (2005).
   D. Rappoport and F. Furche, J. Chem. Phys. 133 134105 (2010).

----- AuxJ basis set information -----
Your calculation utilizes the auxiliary basis: def2/J
   F. Weigend, Phys. Chem. Chem. Phys. 8, 1057 (2006).

================================================================================
                                        WARNINGS
                       Please study these warnings very carefully!
================================================================================

WARNING: Old DensityContainer found on disk!
         Will remove this file - 
         If you want to keep old densities, please start your calculation with a different basename. 


WARNING: Geometry Optimization
  ===> : Switching off AutoStart
         For restart on a previous wavefunction, please use MOREAD

INFO   : the flag for use of the SHARK integral package has been found!

================================================================================
                                       INPUT FILE
================================================================================
NAME = TaCO6-.inp
|  1> !B3LYP def2-TZVPD OPT FREQ TightSCF PAL8
|  2> 
|  3> %scf
|  4>   MaxIter 300
|  5> end
|  6> 
|  7> * xyz -1 1 
|  8> Ta         0.27389        0.93013        0.02870
|  9> C          2.48952        0.92813        0.05974
| 10> C          0.27413        3.14227        0.15631
| 11> C         -1.94181        0.93257       -0.00228
| 12> C          0.27335       -1.28214       -0.09889
| 13> O          0.27421        4.26850        0.22072
| 14> O          3.61744        0.92722        0.07540
| 15> O         -3.06965        0.93392       -0.01792
| 16> O          0.27303       -2.40821       -0.16332
| 17> C          0.30585        1.06042       -2.18307
| 18> C          0.24221        0.79935        2.24054
| 19> O          0.32231        1.12721       -3.30901
| 20> O          0.22601        0.73218        3.36636
| 21> **                         ****END OF INPUT****
================================================================================

                       *****************************
                       * Geometry Optimization Run *
                       *****************************

Geometry optimization settings:
Update method            Update   .... BFGS
Choice of coordinates    CoordSys .... Z-matrix Internals
Initial Hessian          InHess   .... Almoef's Model

Convergence Tolerances:
Energy Change            TolE     ....  5.0000e-06 Eh
Max. Gradient            TolMAXG  ....  3.0000e-04 Eh/bohr
RMS Gradient             TolRMSG  ....  1.0000e-04 Eh/bohr
Max. Displacement        TolMAXD  ....  4.0000e-03 bohr
RMS Displacement         TolRMSD  ....  2.0000e-03 bohr
Strict Convergence                ....  False
------------------------------------------------------------------------------
                        ORCA OPTIMIZATION COORDINATE SETUP
------------------------------------------------------------------------------

The optimization will be done in new redundant internal coordinates
Making redundant internal coordinates   ...  (new redundants) done
Evaluating the initial hessian          ...  (Almloef) done
Evaluating the coordinates              ...  done
Calculating the B-matrix                .... done
Calculating the G-matrix                .... done
Diagonalizing the G-matrix              .... done
The first mode is                       ....    3
The number of degrees of freedom        ....   33

    -----------------------------------------------------------------
                    Redundant Internal Coordinates


    -----------------------------------------------------------------
         Definition                    Initial Value    Approx d2E/dq
    -----------------------------------------------------------------
      1. B(C   1,Ta  0)                  2.2158         0.070000   
      2. B(C   2,Ta  0)                  2.2158         0.070008   
      3. B(C   3,Ta  0)                  2.2159         0.069983   
      4. B(C   4,Ta  0)                  2.2159         0.069975   
      5. B(O   5,C   2)                  1.1281         1.464764   
      6. B(O   6,C   1)                  1.1280         1.464986   
      7. B(O   7,C   3)                  1.1279         1.465415   
      8. B(O   8,C   4)                  1.1279         1.465617   
      9. B(C   9,Ta  0)                  2.2158         0.070004   
     10. B(C  10,Ta  0)                  2.2159         0.069980   
     11. B(O  11,C   9)                  1.1280         1.464930   
     12. B(O  12,C  10)                  1.1279         1.465474   
     13. A(C   3,Ta  0,C   9)           90.0230         0.233493   
     14. A(C   2,Ta  0,C   9)           89.9302         0.233505   
     15. A(C   1,Ta  0,C  10)           90.0149         0.233490   
     16. A(C   2,Ta  0,C  10)           90.0824         0.233494   
     17. A(C   4,Ta  0,C  10)           89.9168         0.233478   
     18. A(C   4,Ta  0,C   9)           90.0706         0.233490   
     19. A(C   2,Ta  0,C   3)           89.9894         0.233495   
     20. A(C   3,Ta  0,C   4)           90.0029         0.233480   
     21. A(C   1,Ta  0,C   2)           89.9992         0.233504   
     22. A(C   3,Ta  0,C  10)           89.9842         0.233482   
     23. A(C   1,Ta  0,C   4)           90.0085         0.233488   
     24. A(C   1,Ta  0,C   9)           89.9779         0.233501   
     25. L(Ta  0,C   1,O   6,C   9, 1) 179.9925         0.358042   
     26. L(Ta  0,C   1,O   6,C   9, 2) 179.9928         0.358042   
     27. L(Ta  0,C   2,O   5,C   9, 2) 179.9964         0.358040   
     28. L(Ta  0,C   2,O   5,C   9, 1) 179.9717         0.358040   
     29. L(Ta  0,C   3,O   7,C  10, 2) 179.9917         0.358044   
     30. L(Ta  0,C   3,O   7,C  10, 1) 179.9938         0.358044   
     31. L(Ta  0,C   4,O   8,C  10, 2) 179.9973         0.358046   
     32. L(Ta  0,C   4,O   8,C  10, 1) 179.9739         0.358046   
     33. L(Ta  0,C   9,O  11,C   2, 2) 179.9864         0.358043   
     34. L(Ta  0,C   9,O  11,C   2, 1) 179.9765         0.358043   
     35. L(Ta  0,C  10,O  12,C   4, 2) 180.0053         0.358044   
     36. L(Ta  0,C  10,O  12,C   4, 1) 179.9694         0.358044   
    -----------------------------------------------------------------

Number of atoms                         .... 13
Number of degrees of freedom            .... 36

         *************************************************************
         *                GEOMETRY OPTIMIZATION CYCLE   1            *
         *************************************************************
---------------------------------
CARTESIAN COORDINATES (ANGSTROEM)
---------------------------------
  Ta     0.273890    0.930130    0.028700
  C      2.489520    0.928130    0.059740
  C      0.274130    3.142270    0.156310
  C     -1.941810    0.932570   -0.002280
  C      0.273350   -1.282140   -0.098890
  O      0.274210    4.268500    0.220720
  O      3.617440    0.927220    0.075400
  O     -3.069650    0.933920   -0.017920
  O      0.273030   -2.408210   -0.163320
  C      0.305850    1.060420   -2.183070
  C      0.242210    0.799350    2.240540
  O      0.322310    1.127210   -3.309010
  O      0.226010    0.732180    3.366360

----------------------------
CARTESIAN COORDINATES (A.U.)
----------------------------
  NO LB      ZA    FRAG     MASS         X           Y           Z
   0 Ta   13.0000*   0   180.948    0.517577    1.757691    0.054235
   1 C     6.0000    0    12.011    4.704511    1.753912    0.112892
   2 C     6.0000    0    12.011    0.518031    5.938030    0.295383
   3 C     6.0000    0    12.011   -3.669489    1.762302   -0.004309
   4 C     6.0000    0    12.011    0.516557   -2.422893   -0.186875
   5 O     8.0000    0    15.999    0.518182    8.066296    0.417100
   6 O     8.0000    0    15.999    6.835971    1.752192    0.142485
   7 O     8.0000    0    15.999   -5.800798    1.764853   -0.033864
   8 O     8.0000    0    15.999    0.515952   -4.550857   -0.308630
   9 C     6.0000    0    12.011    0.577973    2.003903   -4.125404
  10 C     6.0000    0    12.011    0.457711    1.510553    4.234007
  11 O     8.0000    0    15.999    0.609078    2.130118   -6.253123
  12 O     8.0000    0    15.999    0.427097    1.383620    6.361498
* core charge reduced due to ECP

--------------------------------
INTERNAL COORDINATES (ANGSTROEM)
--------------------------------
 Ta     0   0   0     0.000000000000     0.00000000     0.00000000
 C      1   0   0     2.215848320283     0.00000000     0.00000000
 C      1   2   0     2.215817625460    89.99920081     0.00000000
 C      1   2   3     2.215917914545   179.98851604   355.41026516
 C      1   2   3     2.215946310857    90.00854493   180.00081865
 O      3   1   2     1.128070329102   179.97162699    95.13502279
 O      2   1   3     1.128029073251   179.99094805   304.06012416
 O      4   1   3     1.127949244292   179.99143531   313.12793118
 O      5   1   2     1.127911775007   179.97379569    94.21598319
 C      1   2   3     2.215834709224    89.97785615    89.93017691
 C      1   2   3     2.215929424959    90.01486706   269.91763624
 O     10   1   2     1.128039325245   179.97459310   292.29368827
 O     11   1   2     1.127938349955   179.96917132   262.95720684

---------------------------
INTERNAL COORDINATES (A.U.)
---------------------------
 Ta     0   0   0     0.000000000000     0.00000000     0.00000000
 C      1   0   0     4.187346479644     0.00000000     0.00000000
 C      1   2   0     4.187288474835    89.99920081     0.00000000
 C      1   2   3     4.187477993739   179.98851604   355.41026516
 C      1   2   3     4.187531654993    90.00854493   180.00081865
 O      3   1   2     2.131743981805   179.97162699    95.13502279
 O      2   1   3     2.131666019546   179.99094805   304.06012416
 O      4   1   3     2.131515164676   179.99143531   313.12793118
 O      5   1   2     2.131444357989   179.97379569    94.21598319
 C      1   2   3     4.187320758470    89.97785615    89.93017691
 C      1   2   3     4.187499745270    90.01486706   269.91763624
 O     10   1   2     2.131685393007   179.97459310   292.29368827
 O     11   1   2     2.131494577363   179.96917132   262.95720684

---------------------
BASIS SET INFORMATION
---------------------
There are 3 groups of distinct atoms

 Group   1 Type Ta  : 9s8p5d1f contracted to 6s5p3d1f pattern {411111/41111/311/1}
 Group   2 Type C   : 12s6p3d1f contracted to 6s3p3d1f pattern {621111/411/111/1}
 Group   3 Type O   : 12s7p3d1f contracted to 6s4p3d1f pattern {621111/4111/111/1}

Atom   0Ta   basis set group =>   1
Atom   1C    basis set group =>   2
Atom   2C    basis set group =>   2
Atom   3C    basis set group =>   2
Atom   4C    basis set group =>   2
Atom   5O    basis set group =>   3
Atom   6O    basis set group =>   3
Atom   7O    basis set group =>   3
Atom   8O    basis set group =>   3
Atom   9C    basis set group =>   2
Atom  10C    basis set group =>   2
Atom  11O    basis set group =>   3
Atom  12O    basis set group =>   3
---------------------------------
AUXILIARY/J BASIS SET INFORMATION
---------------------------------
There are 3 groups of distinct atoms

 Group   1 Type Ta  : 11s5p5d3f3g contracted to 8s5p5d2f3g pattern {41111111/11111/11111/21/111}
 Group   2 Type C   : 12s5p4d2f1g contracted to 6s4p3d1f1g pattern {711111/2111/211/2/1}
 Group   3 Type O   : 12s5p4d2f1g contracted to 6s4p3d1f1g pattern {711111/2111/211/2/1}

Atom   0Ta   basis set group =>   1
Atom   1C    basis set group =>   2
Atom   2C    basis set group =>   2
Atom   3C    basis set group =>   2
Atom   4C    basis set group =>   2
Atom   5O    basis set group =>   3
Atom   6O    basis set group =>   3
Atom   7O    basis set group =>   3
Atom   8O    basis set group =>   3
Atom   9C    basis set group =>   2
Atom  10C    basis set group =>   2
Atom  11O    basis set group =>   3
Atom  12O    basis set group =>   3
-------------------------
ECP PARAMETER INFORMATION
-------------------------

 Group 1, Type Ta ECP Def2-ECP (replacing 60 core electrons, lmax=3)

Atom   0Ta   ECP group =>   1



           ************************************************************
           *        Program running with 8 parallel MPI-processes     *
           *              working on a common directory               *
           ************************************************************
------------------------------------------------------------------------------
                           ORCA GTO INTEGRAL CALCULATION
                           -- RI-GTO INTEGRALS CHOSEN --
------------------------------------------------------------------------------
------------------------------------------------------------------------------
                   ___                                                        
                  /   \      - P O W E R E D   B Y -                         
                 /     \                                                     
                 |  |  |   _    _      __       _____    __    __             
                 |  |  |  | |  | |    /  \     |  _  \  |  |  /  |          
                  \  \/   | |  | |   /    \    | | | |  |  | /  /          
                 / \  \   | |__| |  /  /\  \   | |_| |  |  |/  /          
                |  |  |   |  __  | /  /__\  \  |    /   |      \           
                |  |  |   | |  | | |   __   |  |    \   |  |\   \          
                \     /   | |  | | |  |  |  |  | |\  \  |  | \   \       
                 \___/    |_|  |_| |__|  |__|  |_| \__\ |__|  \__/        
                                                                              
                      - O R C A' S   B I G   F R I E N D -                    
                                      &                                       
                       - I N T E G R A L  F E E D E R -                       
                                                                              
 v1 FN, 2020, v2 2021                                                         
------------------------------------------------------------------------------


Reading SHARK input file TaCO6-.SHARKINP.tmp ... ok
----------------------
SHARK INTEGRAL PACKAGE
----------------------

Number of atoms                             ...     13
Number of basis functions                   ...    505
Number of shells                            ...    177
Maximum angular momentum                    ...      3
Integral batch strategy                     ... SHARK/LIBINT Hybrid
RI-J (if used) integral strategy            ... SPLIT-RIJ (Revised 2003 algorithm where possible)
Printlevel                                  ...      1
Contraction scheme used                     ... SEGMENTED contraction
Coulomb Range Separation                    ... NOT USED
Exchange Range Separation                   ... NOT USED
Finite Nucleus Model                        ... NOT USED
Auxiliary Coulomb fitting basis             ... AVAILABLE
   # of basis functions in Aux-J            ...    677
   # of shells in Aux-J                     ...    203
   Maximum angular momentum in Aux-J        ...      4
Auxiliary J/K fitting basis                 ... NOT available
Auxiliary Correlation fitting basis         ... NOT available
Auxiliary 'external' fitting basis          ... NOT available
Integral threshold                          ...     2.500000e-11
Primitive cut-off                           ...     2.500000e-12
Primitive pair pre-selection threshold      ...     2.500000e-12

Calculating pre-screening integrals         ... done (  0.0 sec) Dimension = 177
Organizing shell pair data                  ... done (  0.2 sec)
Shell pair information
Total number of shell pairs                 ...     15753
Shell pairs after pre-screening             ...     13347
Total number of primitive shell pairs       ...     43350
Primitive shell pairs kept                  ...     26742
          la=0 lb=0:   2413 shell pairs
          la=1 lb=0:   3216 shell pairs
          la=1 lb=1:   1044 shell pairs
          la=2 lb=0:   2534 shell pairs
          la=2 lb=1:   1659 shell pairs
          la=2 lb=2:    693 shell pairs
          la=3 lb=0:    756 shell pairs
          la=3 lb=1:    557 shell pairs
          la=3 lb=2:    405 shell pairs
          la=3 lb=3:     70 shell pairs

Calculating one electron integrals          ... done (  0.0 sec)
Calculating ECP integrals                   ... 