
                                 *****************
                                 * O   R   C   A *
                                 *****************

                                            #,                                       
                                            ###                                      
                                            ####                                     
                                            #####                                    
                                            ######                                   
                                           ########,                                 
                                     ,,################,,,,,                         
                               ,,#################################,,                 
                          ,,##########################################,,             
                       ,#########################################, ''#####,          
                    ,#############################################,,   '####,        
                  ,##################################################,,,,####,       
                ,###########''''           ''''###############################       
              ,#####''   ,,,,##########,,,,          '''####'''          '####       
            ,##' ,,,,###########################,,,                        '##       
           ' ,,###''''                  '''############,,,                           
         ,,##''                                '''############,,,,        ,,,,,,###''
      ,#''                                            '''#######################'''  
     '                                                          ''''####''''         
             ,#######,   #######,   ,#######,      ##                                
            ,#'     '#,  ##    ##  ,#'     '#,    #''#        ######   ,####,        
            ##       ##  ##   ,#'  ##            #'  '#       #        #'  '#        
            ##       ##  #######   ##           ,######,      #####,   #    #        
            '#,     ,#'  ##    ##  '#,     ,#' ,#      #,         ##   #,  ,#        
             '#######'   ##     ##  '#######'  #'      '#     #####' # '####'        



                  #######################################################
                  #                        -***-                        #
                  #          Department of theory and spectroscopy      #
                  #    Directorship and core code : Frank Neese         #
                  #        Max Planck Institute fuer Kohlenforschung    #
                  #                Kaiser Wilhelm Platz 1               #
                  #                 D-45470 Muelheim/Ruhr               #
                  #                      Germany                        #
                  #                                                     #
                  #                  All rights reserved                #
                  #                        -***-                        #
                  #######################################################



                         Program Version 5.0.4 -  RELEASE  -

 With contributions from (in alphabetic order):
   Daniel Aravena         : Magnetic Suceptibility
   Michael Atanasov       : Ab Initio Ligand Field Theory (pilot matlab implementation)
   Alexander A. Auer      : GIAO ZORA, VPT2 properties, NMR spectrum
   Ute Becker             : Parallelization
   Giovanni Bistoni       : ED, misc. LED, open-shell LED, HFLD
   Martin Brehm           : Molecular dynamics
   Dmytro Bykov           : SCF Hessian
   Vijay G. Chilkuri      : MRCI spin determinant printing, contributions to CSF-ICE
   Dipayan Datta          : RHF DLPNO-CCSD density
   Achintya Kumar Dutta   : EOM-CC, STEOM-CC
   Dmitry Ganyushin       : Spin-Orbit,Spin-Spin,Magnetic field MRCI
   Miquel Garcia          : C-PCM and meta-GGA Hessian, CC/C-PCM, Gaussian charge scheme
   Yang Guo               : DLPNO-NEVPT2, F12-NEVPT2, CIM, IAO-localization
   Andreas Hansen         : Spin unrestricted coupled pair/coupled cluster methods
   Benjamin Helmich-Paris : MC-RPA, TRAH-SCF, COSX integrals
   Lee Huntington         : MR-EOM, pCC
   Robert Izsak           : Overlap fitted RIJCOSX, COSX-SCS-MP3, EOM
   Marcus Kettner         : VPT2
   Christian Kollmar      : KDIIS, OOCD, Brueckner-CCSD(T), CCSD density, CASPT2, CASPT2-K
   Simone Kossmann        : Meta GGA functionals, TD-DFT gradient, OOMP2, MP2 Hessian
   Martin Krupicka        : Initial AUTO-CI
   Lucas Lang             : DCDCAS
   Marvin Lechner         : AUTO-CI (C++ implementation), FIC-MRCC
   Dagmar Lenk            : GEPOL surface, SMD
   Dimitrios Liakos       : Extrapolation schemes; Compound Job, initial MDCI parallelization
   Dimitrios Manganas     : Further ROCIS development; embedding schemes
   Dimitrios Pantazis     : SARC Basis sets
   Anastasios Papadopoulos: AUTO-CI, single reference methods and gradients
   Taras Petrenko         : DFT Hessian,TD-DFT gradient, ASA, ECA, R-Raman, ABS, FL, XAS/XES, NRVS
   Peter Pinski           : DLPNO-MP2, DLPNO-MP2 Gradient
   Christoph Reimann      : Effective Core Potentials
   Marius Retegan         : Local ZFS, SOC
   Christoph Riplinger    : Optimizer, TS searches, QM/MM, DLPNO-CCSD(T), (RO)-DLPNO pert. Triples
   Tobias Risthaus        : Range-separated hybrids, TD-DFT gradient, RPA, STAB
   Michael Roemelt        : Original ROCIS implementation
   Masaaki Saitow         : Open-shell DLPNO-CCSD energy and density
   Barbara Sandhoefer     : DKH picture change effects
   Avijit Sen             : IP-ROCIS
   Kantharuban Sivalingam : CASSCF convergence, NEVPT2, FIC-MRCI
   Bernardo de Souza      : ESD, SOC TD-DFT
   Georgi Stoychev        : AutoAux, RI-MP2 NMR, DLPNO-MP2 response
   Willem Van den Heuvel  : Paramagnetic NMR
   Boris Wezisla          : Elementary symmetry handling
   Frank Wennmohs         : Technical directorship


 We gratefully acknowledge several colleagues who have allowed us to
 interface, adapt or use parts of their codes:
   Stefan Grimme, W. Hujo, H. Kruse, P. Pracht,  : VdW corrections, initial TS optimization,
                  C. Bannwarth, S. Ehlert          DFT functionals, gCP, sTDA/sTD-DF
   Ed Valeev, F. Pavosevic, A. Kumar             : LibInt (2-el integral package), F12 methods
   Garnet Chan, S. Sharma, J. Yang, R. Olivares  : DMRG
   Ulf Ekstrom                                   : XCFun DFT Library
   Mihaly Kallay                                 : mrcc  (arbitrary order and MRCC methods)
   Jiri Pittner, Ondrej Demel                    : Mk-CCSD
   Frank Weinhold                                : gennbo (NPA and NBO analysis)
   Christopher J. Cramer and Donald G. Truhlar   : smd solvation model
   Lars Goerigk                                  : TD-DFT with DH, B97 family of functionals
   V. Asgeirsson, H. Jonsson                     : NEB implementation
   FAccTs GmbH                                   : IRC, NEB, NEB-TS, DLPNO-Multilevel, CI-OPT
                                                   MM, QMMM, 2- and 3-layer-ONIOM, Crystal-QMMM,
                                                   LR-CPCM, SF, NACMEs, symmetry and pop. for TD-DFT,
                                                   nearIR, NL-DFT gradient (VV10), updates on ESD,
                                                   ML-optimized integration grids
   S Lehtola, MJT Oliveira, MAL Marques          : LibXC Library
   Liviu Ungur et al                             : ANISO software


 Your calculation uses the libint2 library for the computation of 2-el integrals
 For citations please refer to: http://libint.valeyev.net

 Your ORCA version has been built with support for libXC version: 5.1.0
 For citations please refer to: https://tddft.org/programs/libxc/

 This ORCA versions uses:
   CBLAS   interface :  Fast vector & matrix operations
   LAPACKE interface :  Fast linear algebra routines
   Shared memory     :  Shared parallel matrices


================================================================================

cite the ECPs for W  [Def2-ECP] as follows:
Ce-Yb(ecp-28): M. Dolg, H. Stoll, H.Preuss, J. Chem. Phys., 1989, 90, 1730-1734.
Y-Cd(ecp-28), Hf-Hg(ecp-46): D. Andrae,U. Haeussermann, M. Dolg, H. Stoll, H. Preuss, Theor. Chim. Acta, 1990, 77, 123-141.
In-Sb(ecp-28), Tl-Bi(ecp-46): B. Metz, H. Stoll, M. Dolg, J. Chem. Phys., 2000, 113, 2563-2569.
Te-Xe(ecp-28), Po-Rn(ecp-46): K. A. Peterson, D. Figgen, E. Goll, H. Stoll, M. Dolg, J. Chem. Phys., 2003, 119, 11113-11123.
Rb(ecp-28), Cs(ecp-46): T. Leininger, A. Nicklass, W. Kuechle, H. Stoll, M. Dolg, A. Bergner, Chem. Phys. Lett., 1996, 255, 274-280.
Sr(ecp-28), Ba(ecp-46): M. Kaupp, P. V. Schleyer, H. Stoll and H. Preuss, J. Chem. Phys., 1991, 94, 1360-1366.
La(ecp-46): M. Dolg, H. Stoll, A. Savin, H. Preuss, Theor. Chim. Acta, 1989, 75, 173-194.
Lu(ecp-28): X. Cao, M. Dolg, J. Chem. Phys., 2001, 115, 7348-7355.

ECP parameters for W  [Def2-ECP] have been obtained from:
TURBOMOLE (7.0.2)

----- Orbital basis set information -----
Your calculation utilizes the basis: def2-TZVPD
   F. Weigend and R. Ahlrichs, Phys. Chem. Chem. Phys. 7, 3297 (2005).
   D. Rappoport and F. Furche, J. Chem. Phys. 133 134105 (2010).

----- AuxJ basis set information -----
Your calculation utilizes the auxiliary basis: def2/J
   F. Weigend, Phys. Chem. Chem. Phys. 8, 1057 (2006).

================================================================================
                                        WARNINGS
                       Please study these warnings very carefully!
================================================================================


WARNING: your system is open-shell and RHF/RKS was chosen
  ===> : WILL SWITCH to UHF/UKS


WARNING: Geometry Optimization
  ===> : Switching off AutoStart
         For restart on a previous wavefunction, please use MOREAD

INFO   : the flag for use of the SHARK integral package has been found!

================================================================================
                                       INPUT FILE
================================================================================
NAME = WCO6-.inp
|  1> !B3LYP def2-TZVPD OPT FREQ TightSCF PAL8

|  2> 

|  3> %scf

|  4>   MaxIter 300

|  5> end

|  6> 

|  7> * xyz -1 2 

|  8> W         -1.37621        2.56722        0.10711

|  9> C          0.70839        2.53117        0.30993

| 10> C         -1.33834        4.66140        0.07376

| 11> C         -3.46098        2.60316       -0.09572

| 12> C         -1.41502        0.47296        0.14051

| 13> C         -1.57994        2.60535        2.19168

| 14> C         -1.17198        2.52910       -1.97739

| 15> O         -1.68985        2.62619        3.31419

| 16> O         -1.43573       -0.65466        0.15820

| 17> O         -1.31832        5.78914        0.05603

| 18> O         -1.06136        2.50831       -3.09969

| 19> O         -4.58356        2.62277       -0.20455

| 20> O          1.83095        2.51149        0.41866

| 21> **                         ****END OF INPUT****
================================================================================

                       *****************************
                       * Geometry Optimization Run *
                       *****************************

Geometry optimization settings:
Update method            Update   .... BFGS
Choice of coordinates    CoordSys .... Z-matrix Internals
Initial Hessian          InHess   .... Almoef's Model

Convergence Tolerances:
Energy Change            TolE     ....  5.0000e-06 Eh
Max. Gradient            TolMAXG  ....  3.0000e-04 Eh/bohr
RMS Gradient             TolRMSG  ....  1.0000e-04 Eh/bohr
Max. Displacement        TolMAXD  ....  4.0000e-03 bohr
RMS Displacement         TolRMSD  ....  2.0000e-03 bohr
Strict Convergence                ....  False
------------------------------------------------------------------------------
                        ORCA OPTIMIZATION COORDINATE SETUP
------------------------------------------------------------------------------

The optimization will be done in new redundant internal coordinates
Making redundant internal coordinates   ...  (new redundants) done
Evaluating the initial hessian          ...  (Almloef) done
Evaluating the coordinates              ...  done
Calculating the B-matrix                .... done
Calculating the G-matrix                .... done
Diagonalizing the G-matrix              .... done
The first mode is                       ....    3
The number of degrees of freedom        ....   33

    -----------------------------------------------------------------
                    Redundant Internal Coordinates


    -----------------------------------------------------------------
         Definition                    Initial Value    Approx d2E/dq
    -----------------------------------------------------------------
      1. B(C   1,W   0)                  2.0948         0.109219   
      2. B(C   2,W   0)                  2.0948         0.109206   
      3. B(C   3,W   0)                  2.0949         0.109152   
      4. B(C   4,W   0)                  2.0949         0.109166   
      5. B(C   5,W   0)                  2.0948         0.109181   
      6. B(C   6,W   0)                  2.0948         0.109190   
      7. B(O   7,C   5)                  1.1281         1.464762   
      8. B(O   8,C   4)                  1.1279         1.465417   
      9. B(O   9,C   2)                  1.1281         1.464835   
     10. B(O  10,C   6)                  1.1279         1.465518   
     11. B(O  11,C   3)                  1.1280         1.465070   
     12. B(O  12,C   1)                  1.1280         1.465222   
     13. A(C   4,W   0,C   5)           90.0303         0.265702   
     14. A(C   3,W   0,C   5)           89.9571         0.265697   
     15. A(C   2,W   0,C   3)           89.9598         0.265706   
     16. A(C   1,W   0,C   6)           89.9434         0.265725   
     17. A(C   2,W   0,C   6)           90.0337         0.265720   
     18. A(C   3,W   0,C   6)           90.0567         0.265700   
     19. A(C   4,W   0,C   6)           89.9702         0.265705   
     20. A(C   3,W   0,C   4)           90.0148         0.265691   
     21. A(C   1,W   0,C   2)           90.0433         0.265730   
     22. A(C   1,W   0,C   5)           90.0428         0.265721   
     23. A(C   1,W   0,C   4)           89.9821         0.265716   
     24. A(C   2,W   0,C   5)           89.9659         0.265716   
     25. L(W   0,C   1,O  12,C   6, 1) 179.9750         0.386553   
     26. L(W   0,C   1,O  12,C   6, 2) 180.0186         0.386553   
     27. L(W   0,C   2,O   9,C   3, 2) 179.9810         0.386527   
     28. L(W   0,C   2,O   9,C   3, 1) 179.9823         0.386527   
     29. L(W   0,C   3,O  11,C   5, 2) 179.9820         0.386504   
     30. L(W   0,C   3,O  11,C   5, 1) 179.9802         0.386504   
     31. L(W   0,C   4,O   8,C   6, 1) 179.9842         0.386529   
     32. L(W   0,C   4,O   8,C   6, 2) 179.9887         0.386529   
     33. L(W   0,C   5,O   7,C   3, 2) 180.0218         0.386508   
     34. L(W   0,C   5,O   7,C   3, 1) 179.9894         0.386508   
     35. L(W   0,C   6,O  10,C   1, 2) 179.9818         0.386548   
     36. L(W   0,C   6,O  10,C   1, 1) 179.9663         0.386548   
    -----------------------------------------------------------------

Number of atoms                         .... 13
Number of degrees of freedom            .... 36

         *************************************************************
         *                GEOMETRY OPTIMIZATION CYCLE   1            *
         *************************************************************
---------------------------------
CARTESIAN COORDINATES (ANGSTROEM)
---------------------------------
  W     -1.376210    2.567220    0.107110
  C      0.708390    2.531170    0.309930
  C     -1.338340    4.661400    0.073760
  C     -3.460980    2.603160   -0.095720
  C     -1.415020    0.472960    0.140510
  C     -1.579940    2.605350    2.191680
  C     -1.171980    2.529100   -1.977390
  O     -1.689850    2.626190    3.314190
  O     -1.435730   -0.654660    0.158200
  O     -1.318320    5.789140    0.056030
  O     -1.061360    2.508310   -3.099690
  O     -4.583560    2.622770   -0.204550
  O      1.830950    2.511490    0.418660

----------------------------
CARTESIAN COORDINATES (A.U.)
----------------------------
  NO LB      ZA    FRAG     MASS         X           Y           Z
   0 W    14.0000*   0   183.850   -2.600660    4.851343    0.202409
   1 C     6.0000    0    12.011    1.338663    4.783218    0.585683
   2 C     6.0000    0    12.011   -2.529096    8.808769    0.139386
   3 C     6.0000    0    12.011   -6.540304    4.919259   -0.180885
   4 C     6.0000    0    12.011   -2.674000    0.893765    0.265525
   5 C     6.0000    0    12.011   -2.985654    4.923398    4.141675
   6 C     6.0000    0    12.011   -2.214721    4.779306   -3.736726
   7 O     8.0000    0    15.999   -3.193354    4.962780    6.262911
   8 O     8.0000    0    15.999   -2.713137   -1.237128    0.298955
   9 O     8.0000    0    15.999   -2.491264   10.939889    0.105881
  10 O     8.0000    0    15.999   -2.005680    4.740019   -5.857565
  11 O     8.0000    0    15.999   -8.661673    4.956317   -0.386543
  12 O     8.0000    0    15.999    3.459994    4.746028    0.791153
* core charge reduced due to ECP

--------------------------------
INTERNAL COORDINATES (ANGSTROEM)
--------------------------------
 W      0   0   0     0.000000000000     0.00000000     0.00000000
 C      1   0   0     2.094753616753     0.00000000     0.00000000
 C      1   2   0     2.094787872745    90.04329025     0.00000000
 C      1   2   3     2.094921870954   179.99690674   182.29116734
 C      1   2   3     2.094885849802    89.98212640   180.00380390
 C      1   2   3     2.094848895434    90.04279574   270.03411615
 C      1   2   3     2.094827744064    89.94341391    90.03361590
 O      6   1   2     1.128070571285   179.98128769   124.50532445
 O      5   1   2     1.127948892725   179.98232997   296.87930288
 O      3   1   2     1.128057029099   179.97774731   217.10318201
 O      7   1   2     1.127930094687   179.96392626    20.91481758
 O      4   1   2     1.128013465079   179.97643751   120.50657057
 O      2   1   3     1.127985136826   179.97178934   242.17983125

---------------------------
INTERNAL COORDINATES (A.U.)
---------------------------
 W      0   0   0     0.000000000000     0.00000000     0.00000000
 C      1   0   0     3.958510653704     0.00000000     0.00000000
 C      1   2   0     3.958575388148    90.04329025     0.00000000
 C      1   2   3     3.958828608064   179.99690674   182.29116734
 C      1   2   3     3.958760537952    89.98212640   180.00380390
 C      1   2   3     3.958690704317    90.04279574   270.03411615
 C      1   2   3     3.958650734021    89.94341391    90.03361590
 O      6   1   2     2.131744439465   179.98128769   124.50532445
 O      5   1   2     2.131514500310   179.98232997   296.87930288
 O      3   1   2     2.131718848442   179.97774731   217.10318201
 O      7   1   2     2.131478977166   179.96392626    20.91481758
 O      4   1   2     2.131636524375   179.97643751   120.50657057
 O      2   1   3     2.131582991735   179.97178934   242.17983125

---------------------
BASIS SET INFORMATION
---------------------
There are 3 groups of distinct atoms

 Group   1 Type W   : 8s8p6d1f contracted to 6s5p3d1f pattern {311111/41111/411/1}
 Group   2 Type C   : 12s6p3d1f contracted to 6s3p3d1f pattern {621111/411/111/1}
 Group   3 Type O   : 12s7p3d1f contracted to 6s4p3d1f pattern {621111/4111/111/1}

Atom   0W    basis set group =>   1
Atom   1C    basis set group =>   2
Atom   2C    basis set group =>   2
Atom   3C    basis set group =>   2
Atom   4C    basis set group =>   2
Atom   5C    basis set group =>   2
Atom   6C    basis set group =>   2
Atom   7O    basis set group =>   3
Atom   8O    basis set group =>   3
Atom   9O    basis set group =>   3
Atom  10O    basis set group =>   3
Atom  11O    basis set group =>   3
Atom  12O    basis set group =>   3
---------------------------------
AUXILIARY/J BASIS SET INFORMATION
---------------------------------
There are 3 groups of distinct atoms

 Group   1 Type W   : 11s5p5d3f3g contracted to 8s5p5d2f3g pattern {41111111/11111/11111/21/111}
 Group   2 Type C   : 12s5p4d2f1g contracted to 6s4p3d1f1g pattern {711111/2111/211/2/1}
 Group   3 Type O   : 12s5p4d2f1g contracted to 6s4p3d1f1g pattern {711111/2111/211/2/1}

Atom   0W    basis set group =>   1
Atom   1C    basis set group =>   2
Atom   2C    basis set group =>   2
Atom   3C    basis set group =>   2
Atom   4C    basis set group =>   2
Atom   5C    basis set group =>   2
Atom   6C    basis set group =>   2
Atom   7O    basis set group =>   3
Atom   8O    basis set group =>   3
Atom   9O    basis set group =>   3
Atom  10O    basis set group =>   3
Atom  11O    basis set group =>   3
Atom  12O    basis set group =>   3
-------------------------
ECP PARAMETER INFORMATION
-------------------------

 Group 1, Type W  ECP Def2-ECP (replacing 60 core electrons, lmax=3)

Atom   0W    ECP group =>   1



           ************************************************************
           *        Program running with 8 parallel MPI-processes     *
           *              working on a common directory               *
           ************************************************************
------------------------------------------------------------------------------
                           ORCA GTO INTEGRAL CALCULATION
                           -- RI-GTO INTEGRALS CHOSEN --
------------------------------------------------------------------------------
------------------------------------------------------------------------------
                   ___                                                        
                  /   \      - P O W E R E D   B Y -                         
                 /     \                                                     
                 |  |  |   _    _      __       _____    __    __             
                 |  |  |  | |  | |    /  \     |  _  \  |  |  /  |          
                  \  \/   | |  | |   /    \    | | | |  |  | /  /          
                 / \  \   | |__| |  /  /\  \   | |_| |  |  |/  /          
                |  |  |   |  __  | /  /__\  \  |    /   |      \           
                |  |  |   | |  | | |   __   |  |    \   |  |\   \          
                \     /   | |  | | |  |  |  |  | |\  \  |  | \   \       
                 \___/    |_|  |_| |__|  |__|  |_| \__\ |__|  \__/        
                                                                              
                      - O R C A' S   B I G   F R I E N D -                    
                                      &                                       
                       - I N T E G R A L  F E E D E R -                       
                                                                              
 v1 FN, 2020, v2 2021                                                         
------------------------------------------------------------------------------


Reading SHARK input file WCO6-.SHARKINP.tmp ... ok
----------------------
SHARK INTEGRAL PACKAGE
----------------------

Number of atoms                             ...     13
Number of basis functions                   ...    505
Number of shells                            ...    177
Maximum angular momentum                    ...      3
Integral batch strategy                     ... SHARK/LIBINT Hybrid
RI-J (if used) integral strategy            ... SPLIT-RIJ (Revised 2003 algorithm where possible)
Printlevel                                  ...      1
Contraction scheme used                     ... SEGMENTED contraction
Coulomb Range Separation                    ... NOT USED
Exchange Range Separation                   ... NOT USED
Finite Nucleus Model                        ... NOT USED
Auxiliary Coulomb fitting basis             ... AVAILABLE
   # of basis functions in Aux-J            ...    677
   # of shells in Aux-J                     ...    203
   Maximum angular momentum in Aux-J        ...      4
Auxiliary J/K fitting basis                 ... NOT available
Auxiliary Correlation fitting basis         ... NOT available
Auxiliary 'external' fitting basis          ... NOT available
Integral threshold                          ...     2.500000e-11
Primitive cut-off                           ...     2.500000e-12
Primitive pair pre-selection threshold      ...     2.500000e-12

Calculating pre-screening integrals         ... done (  0.1 sec) Dimension = 177
Organizing shell pair data                  ... done (  0.3 sec)
Shell pair information
Total number of shell pairs                 ...     15753
Shell pairs after pre-screening             ...     13653
Total number of primitive shell pairs       ...     43350
Primitive shell pairs kept                  ...     27528
          la=0 lb=0:   2457 shell pairs
          la=1 lb=0:   3300 shell pairs
          la=1 lb=1:   1092 shell pairs
          la=2 lb=0:   2598 shell pairs
          la=2 lb=1:   1665 shell pairs
          la=2 lb=2:    693 shell pairs
          la=3 lb=0:    762 shell pairs
          la=3 lb=1:    563 shell pairs
          la=3 lb=2:    453 shell pairs
          la=3 lb=3:     70 shell pairs

Calculating one electron integrals          ... done (  0.0 sec)
Calculating ECP integrals                   ... done (  1.3 sec)
Calculating RI/J V-Matrix + Cholesky decomp.... done (  0.1 sec)
Calculating Nuclear repulsion               ... done (  0.0 sec) ENN=    755.755504036229 Eh

SHARK setup successfully completed in   2.0 seconds

Maximum memory used throughout the entire GTOINT-calculation: 25.7 MB


           ************************************************************
           *        Program running with 8 parallel MPI-processes     *
           *              working on a common directory               *
           ************************************************************
-------------------------------------------------------------------------------
                                 ORCA SCF
-------------------------------------------------------------------------------

------------
SCF SETTINGS
------------
Hamiltonian:
 Density Functional     Method          .... DFT(GTOs)
 Exchange Functional    Exchange        .... B88
   X-Alpha parameter    XAlpha          ....  0.666667
   Becke's b parameter  XBeta           ....  0.004200
 Correlation Functional Correlation     .... LYP
 LDA part of GGA corr.  LDAOpt          .... VWN-5
 Gradients option       PostSCFGGA      .... off
 Hybrid DFT is turned on
   Fraction HF Exchange ScalHFX         ....  0.200000
   Scaling of DF-GGA-X  ScalDFX         ....  0.720000
   Scaling of DF-GGA-C  ScalDFC         ....  0.810000
   Scaling of DF-LDA-C  ScalLDAC        ....  1.000000
   Perturbative correction              ....  0.000000
   Density functional embedding theory  .... OFF
   NL short-range parameter             ....  4.800000
 RI-approximation to the Coulomb term is turned on
   Number of AuxJ basis functions       .... 677
   RIJ-COSX (HFX calculated with COS-X)).... on


General Settings:
 Integral files         IntName         .... WCO6-
 Hartree-Fock type      HFTyp           .... UHF
 Total Charge           Charge          ....   -1
 Multiplicity           Mult            ....    2
 Number of Electrons    NEL             ....   99
 Basis Dimension        Dim             ....  505
 Nuclear Repulsion      ENuc            ....    755.7555040362 Eh

Convergence Acceleration:
 DIIS                   CNVDIIS         .... on
   Start iteration      DIISMaxIt       ....    12
   Startup error        DIISStart       ....  0.200000
   # of expansion vecs  DIISMaxEq       ....     5
   Bias factor          DIISBfac        ....   1.050
   Max. coefficient     DIISMaxC        ....  10.000
 Trust-Rad. Augm. Hess. CNVTRAH         .... auto
   Auto Start mean grad. ratio tolernc. ....  1.125000
   Auto Start start iteration           ....    20
   Auto Start num. interpolation iter.  ....    10
   Max. Number of Micro iterations      ....    16
   Max. Number of Macro iterations      .... Maxiter - #DIIS iter
   Number of Davidson start vectors     ....     2
   Converg. threshold I  (grad. norm)   ....   1.000e-05
   Converg. threshold II (energy diff.) ....   1.000e-08
   Grad. Scal. Fac. for Micro threshold ....   0.100
   Minimum threshold for Micro iter.    ....   0.010
   NR start threshold (gradient norm)   ....   0.001
   Initial trust radius                 ....   0.400
   Minimum AH scaling param. (alpha)    ....   1.000
   Maximum AH scaling param. (alpha)    .... 1000.000
   Orbital update algorithm             .... Taylor
   White noise on init. David. guess    .... on
   Maximum white noise                  ....   0.010
   Quad. conv. algorithm                .... NR
 SOSCF                  CNVSOSCF        .... off
 Level Shifting         CNVShift        .... on
   Level shift para.    LevelShift      ....    0.2500
   Turn off err/grad.   ShiftErr        ....    0.0010
 Zerner damping         CNVZerner       .... off
 Static damping         CNVDamp         .... on
   Fraction old density DampFac         ....    0.7000
   Max. Damping (<1)    DampMax         ....    0.9800
   Min. Damping (>=0)   DampMin         ....    0.0000
   Turn off err/grad.   DampErr         ....    0.1000
 Fernandez-Rico         CNVRico         .... off

SCF Procedure:
 Maximum # iterations   MaxIter         ....   300
 SCF integral mode      SCFMode         .... Direct
   Integral package                     .... SHARK and LIBINT hybrid scheme
 Reset frequency        DirectResetFreq ....    20
 Integral Threshold     Thresh          ....  2.500e-11 Eh
 Primitive CutOff       TCut            ....  2.500e-12 Eh

Convergence Tolerance:
 Convergence Check Mode ConvCheckMode   .... Total+1el-Energy
 Convergence forced     ConvForced      .... 0
 Energy Change          TolE            ....  1.000e-08 Eh
 1-El. energy change                    ....  1.000e-05 Eh
 DIIS Error             TolErr          ....  5.000e-07


Diagonalization of the overlap matrix:
Smallest eigenvalue                        ... 4.100e-06
Time for diagonalization                   ...    0.072 sec
Threshold for overlap eigenvalues          ... 1.000e-08
Number of eigenvalues below threshold      ... 0
Time for construction of square roots      ...    0.133 sec
Total time needed                          ...    0.206 sec

Time for model grid setup =    0.162 sec

------------------------------
INITIAL GUESS: MODEL POTENTIAL
------------------------------
Loading Hartree-Fock densities                     ... done
  calling C:\orca_5_0_4\orca WCO6-_atom74.inp > WCO6-_atom74.out in order to generate an atomic fitting density for atom 0 (W  with ECP) on-the-fly... 
    atom 0 (W ), assumed electronic state with S=5: 1s2 2s2 2p6 3s2 3p6 4s2 3d10 4p6 5s2 4d10 5p6 6s2 4f14 5d4           ... done
Calculating cut-offs                               ... done
Initializing the effective Hamiltonian             ... done
Setting up the integral package (SHARK)            ... done
Starting the Coulomb interaction                   ... done (   0.2 sec)
Reading the grid                                   ... done
Mapping shells                                     ... done
Starting the XC term evaluation                    ... done (   0.2 sec)
  promolecular density results
     # of electrons  =    158.003070146
     EX              =   -406.132883752
     EC              =     -6.997092245
     EX+EC           =   -413.129975996
Transforming the Hamiltonian                       ... done (   0.1 sec)
Diagonalizing the Hamiltonian                      ... done (   0.1 sec)
Back transforming the eigenvectors                 ... done (   0.0 sec)
Now organizing SCF variables                       ... done
                      ------------------
                      INITIAL GUESS DONE (   5.1 sec)
                      ------------------
-------------------
DFT GRID GENERATION
-------------------

General Integration Accuracy     IntAcc      ... 4.388
Radial Grid Type                 RadialGrid  ... OptM3 with GC (2021)
Angular Grid (max. ang.)         AngularGrid ... 4 (Lebedev-302)
Angular grid pruning method      GridPruning ... 4 (adaptive)
Weight generation scheme         WeightScheme... Becke
Basis function cutoff            BFCut       ... 1.0000e-11
Integration weight cutoff        WCut        ... 1.0000e-14
Angular grids for H and He will be reduced by one unit
Partially contracted basis set               ... off
Rotationally invariant grid construction     ... off

Total number of grid points                  ...    87691
Total number of batches                      ...     1378
Average number of points per batch           ...       63
Average number of grid points per atom       ...     6745
Time for grid setup =    0.631 sec

--------------------
COSX GRID GENERATION
--------------------

GRIDX 1
-------
General Integration Accuracy     IntAcc      ... 3.816
Radial Grid Type                 RadialGrid  ... OptM3 with GC (2021)
Angular Grid (max. ang.)         AngularGrid ... 1 (Lebedev-50)
Angular grid pruning method      GridPruning ... 4 (adaptive)
Weight generation scheme         WeightScheme... Becke
Basis function cutoff            BFCut       ... 1.0000e-11
Integration weight cutoff        WCut        ... 1.0000e-14
Angular grids for H and He will be reduced by one unit
Partially contracted basis set               ... on
Rotationally invariant grid construction     ... off

Total number of grid points                  ...    10828
Total number of batches                      ...      175
Average number of points per batch           ...       61
Average number of grid points per atom       ...      833
UseSFitting                                  ... on

GRIDX 2
-------
General Integration Accuracy     IntAcc      ... 4.020
Radial Grid Type                 RadialGrid  ... OptM3 with GC (2021)
Angular Grid (max. ang.)         AngularGrid ... 2 (Lebedev-110)
Angular grid pruning method      GridPruning ... 4 (adaptive)
Weight generation scheme         WeightScheme... Becke
Basis function cutoff            BFCut       ... 1.0000e-11
Integration weight cutoff        WCut        ... 1.0000e-14
Angular grids for H and He will be reduced by one unit
Partially contracted basis set               ... on
Rotationally invariant grid construction     ... off

Total number of grid points                  ...    29875
Total number of batches                      ...      472
Average number of points per batch           ...       63
Average number of grid points per atom       ...     2298
UseSFitting                                  ... on

GRIDX 3
-------
General Integration Accuracy     IntAcc      ... 4.338
Radial Grid Type                 RadialGrid  ... OptM3 with GC (2021)
Angular Grid (max. ang.)         AngularGrid ... 3 (Lebedev-194)
Angular grid pruning method      GridPruning ... 4 (adaptive)
Weight generation scheme         WeightScheme... Becke
Basis function cutoff            BFCut       ... 1.0000e-11
Integration weight cutoff        WCut        ... 1.0000e-14
Angular grids for H and He will be reduced by one unit
Partially contracted basis set               ... on
Rotationally invariant grid construction     ... off

Total number of grid points                  ...    63149
Total number of batches                      ...      992
Average number of points per batch           ...       63
Average number of grid points per atom       ...     4858
UseSFitting                                  ... on

Time for X-Grid setup             =    1.733 sec

--------------
SCF ITERATIONS
--------------
ITER       Energy         Delta-E        Max-DP      RMS-DP      [F,P]     Damp
               ***  Starting incremental Fock matrix formation  ***
  0   -746.6975254202   0.000000000000 0.18282814  0.00090937  0.1892845 0.7000
  1   -746.9404880083  -0.242962588122 0.11345072  0.00066845  0.1248776 0.7000
                               ***Turning on DIIS***
  2   -747.0183438241  -0.077855815773 0.22649357  0.00158370  0.0821647 0.0000
  3   -747.1505580986  -0.132214274512 0.03802005  0.00028254  0.0439769 0.0000
  4   -747.1811368111  -0.030578712450 0.01741876  0.00016671  0.0139935 0.0000
  5   -747.1857097668  -0.004572955699 0.00727837  0.00007786  0.0033456 0.0000
  6   -747.1859563598  -0.000246593035 0.00293770  0.00004424  0.0020402 0.0000
  7   -747.1860981915  -0.000141831702 0.00246379  0.00003646  0.0012849 0.0000
  8   -747.1861293977  -0.000031206211 0.01249889  0.00015834  0.0004707 0.0000
               *** Restarting incremental Fock matrix formation ***
                                   *** Resetting DIIS ***
  9   -747.1862015042  -0.000072106451 0.00494070  0.00006217  0.0001210 0.0000
 10   -747.1862026204  -0.000001116260 0.00057743  0.00000617  0.0002130 0.0000
 11   -747.1862035072  -0.000000886734 0.00142368  0.00001445  0.0000956 0.0000
 12   -747.1862037311  -0.000000223932 0.00046243  0.00000463  0.0000503 0.0000
 13   -747.1862038327  -0.000000101552 0.00033803  0.00000297  0.0000137 0.0000
 14   -747.1862038557  -0.000000023044 0.00011814  0.00000139  0.0000158 0.0000
 15   -747.1862038784  -0.000000022731 0.00018521  0.00000159  0.0000069 0.0000
 16   -747.1862038993  -0.000000020877 0.00029617  0.00000267  0.0000076 0.0000
 17   -747.1862039355  -0.000000036238 0.00010948  0.00000105  0.0000069 0.0000
 18   -747.1862039278   0.000000007723 0.00051366  0.00000464  0.0000074 0.0000
 19   -747.1862040026  -0.000000074796 0.00034211  0.00000518  0.0000053 0.0000
 20   -747.1862041186  -0.000000115943 0.00022730  0.00000308  0.0000057 0.0000
 21   -747.1862041845  -0.000000065912 0.00056303  0.00000754  0.0000073 0.0000

 WARNING: the maximum gradient error descreased on average only by a factor   1.1
          during the last 20 iterations

                      *** Initiating the TRAH-SCF procedure ***


TRAH GRIDX
----------

General Integration Accuracy     IntAcc      ... 3.067
Radial Grid Type                 RadialGrid  ... OptM3 with GC (2021)
Angular Grid (max. ang.)         AngularGrid ... 1 (Lebedev-50)
Angular grid pruning method      GridPruning ... 4 (adaptive)
Weight generation scheme         WeightScheme... Becke
Basis function cutoff            BFCut       ... 1.0000e-11
Integration weight cutoff        WCut        ... 1.0000e-14
Angular grids for H and He will be reduced by one unit
Partially contracted basis set               ... on
Rotationally invariant grid construction     ... off

Total number of grid points                  ...     6170
Total number of batches                      ...      103
Average number of points per batch           ...       59
Average number of grid points per atom       ...      475


TRAH GRID
---------

General Integration Accuracy     IntAcc      ... 3.467
Radial Grid Type                 RadialGrid  ... OptM3 with GC (2021)
Angular Grid (max. ang.)         AngularGrid ... 1 (Lebedev-50)
Angular grid pruning method      GridPruning ... 4 (adaptive)
Weight generation scheme         WeightScheme... Becke
Basis function cutoff            BFCut       ... 1.0000e-11
Integration weight cutoff        WCut        ... 1.0000e-14
Angular grids for H and He will be reduced by one unit
Partially contracted basis set               ... off
Rotationally invariant grid construction     ... off

Total number of grid points                  ...    17105
Total number of batches                      ...      274
Average number of points per batch           ...       62
Average number of grid points per atom       ...     1316

 --------------------------------------------------------------------------------------------
   Iter.        energy            ||Error||_2        Shift      TRadius  Mac/Mic        Rej.
 --------------------------------------------------------------------------------------------
    0       -747.186204354756     4.784577e-05                     0.400 (TRAH MAcro)   No
    0     dE    -8.857370e-10     6.940324e-05    -8.8912e-10      0.000 (TRAH MIcro)
    0     dE    -2.743103e-08     2.819407e-04    -2.7431e-08      0.002 (TRAH MIcro)
    0     dE    -7.755098e-08     3.743627e-04    -7.7549e-08      0.005 (TRAH MIcro)
    0     dE    -1.319163e-07     2.596228e-04    -1.3191e-07      0.009 (TRAH MIcro)
    0     dE    -1.737053e-07     7.284263e-05    -1.7368e-07      0.012 (TRAH MIcro)
    0     dE    -1.761520e-07     4.388088e-05    -1.7613e-07      0.012 (TRAH MIcro)
    0     dE    -1.782380e-07     3.258793e-05    -1.7821e-07      0.013 (TRAH MIcro)
    0     dE    -1.789499e-07     2.955077e-05    -1.7892e-07      0.013 (TRAH MIcro)
    0     dE    -1.792546e-07     9.192636e-06    -1.7923e-07      0.013 (TRAH MIcro)
    0     dE    -1.792993e-07     7.100916e-06    -1.7927e-07      0.013 (TRAH MIcro)
    0     dE    -1.793276e-07     4.678027e-06    -1.7930e-07      0.013 (TRAH MIcro)
    0     dE    -1.793419e-07     3.205914e-06    -1.7931e-07      0.013 (TRAH MIcro)
    0     dE    -1.793494e-07     2.967783e-06    -1.7932e-07      0.013 (TRAH MIcro)
    0     dE    -1.793708e-07     6.485178e-06    -1.7934e-07      0.013 (TRAH MIcro)
    1       -747.186204535177     1.692921e-05                           (NR   MAcro)
    1     dE    -1.930518e-10     9.790200e-06                           (NR   MIcro)
    1     dE    -2.832832e-10     3.051137e-06                           (NR   MIcro)
    1     dE    -2.889212e-10     1.604378e-06                           (NR   MIcro)
    1     dE    -2.933083e-10     1.732411e-06                           (NR   MIcro)
    1     dE    -2.962142e-10     1.430041e-06                           (NR   MIcro)
    1     dE    -3.016882e-10     2.435250e-06                           (NR   MIcro)
    1     dE    -3.082089e-10     3.097669e-06                           (NR   MIcro)
    1     dE    -3.198597e-10     2.030586e-06                           (NR   MIcro)
    1     dE    -3.270089e-10     2.104064e-06                           (NR   MIcro)
    1     dE    -3.302158e-10     1.704222e-06                           (NR   MIcro)
    1     dE    -3.322345e-10     7.614129e-07                           (NR   MIcro)
    2       -747.186204535570     7.658542e-07                           (NR   MAcro)

               *****************************************************
               *                     SUCCESS                       *
               *           SCF CONVERGED AFTER  50 CYCLES          *
               *****************************************************

Old exchange energy                            =    -17.449158605 Eh
New exchange energy                            =    -17.449142065 Eh
Exchange energy change after final integration =      0.000016540 Eh
Total energy after final integration           =   -747.186187996 Eh
Final COS-X integration done in                =    12.516 sec

----------------
TOTAL SCF ENERGY
----------------

Total Energy       :         -747.18618800 Eh          -20331.96983 eV

Components:
Nuclear Repulsion  :          755.75550404 Eh           20565.15278 eV
Electronic Energy  :        -1502.94169203 Eh          -40897.12261 eV
One Electron Energy:        -2560.16145610 Eh          -69665.53495 eV
Two Electron Energy:         1057.21976407 Eh           28768.41234 eV
Max COSX asymmetry :            0.00000030 Eh               0.00001 eV

Virial components:
Potential Energy   :        -1448.39136608 Eh          -39412.73278 eV
Kinetic Energy     :          701.20517809 Eh           19080.76294 eV
Virial Ratio       :            2.06557426


DFT components:
N(Alpha)           :       49.999391816018 electrons
N(Beta)            :       48.999964963354 electrons
N(Total)           :       98.999356779371 electrons
E(X)               :      -69.853711620683 Eh       
E(C)               :       -4.084027496845 Eh       
E(XC)              :      -73.937739117528 Eh       
DFET-embed. en.    :        0.000000000000 Eh       

---------------
SCF CONVERGENCE
---------------

  Last Energy change         ...   -3.9267e-10  Tolerance :   1.0000e-08
  Last Orbital Gradient      ...    7.6585e-07  Tolerance :   1.0000e-05
  Last Orbital Rotation      ...    1.9500e-04

             **** THE GBW FILE WAS UPDATED (WCO6-.gbw) ****
             **** DENSITY WCO6-.scfp WAS UPDATED ****
             **** ENERGY FILE WAS UPDATED (WCO6-.en.tmp) ****
----------------------
UHF SPIN CONTAMINATION
----------------------

Warning: in a DFT calculation there is little theoretical justification to 
         calculate <S**2> as in Hartree-Fock theory. We will do it anyways
         but you should keep in mind that the values have only limited relevance

Expectation value of <S**2>     :     0.757758
Ideal value S*(S+1) for S=0.5   :     0.750000
Deviation                       :     0.007758

             **** THE GBW FILE WAS UPDATED (WCO6-.gbw) ****
             **** DENSITY WCO6-.scfp WAS UPDATED ****
----------------
ORBITAL ENERGIES
----------------
                 SPIN UP ORBITALS
  NO   OCC          E(Eh)            E(eV) 
   0   1.0000     -19.050817      -518.3991 
   1   1.0000     -19.050805      -518.3988 
   2   1.0000     -19.050803      -518.3987 
   3   1.0000     -19.050783      -518.3982 
   4   1.0000     -19.050734      -518.3968 
   5   1.0000     -19.050684      -518.3955 
   6   1.0000     -10.122713      -275.4530 
   7   1.0000     -10.122703      -275.4527 
   8   1.0000     -10.122692      -275.4524 
   9   1.0000     -10.122677      -275.4521 
  10   1.0000     -10.122637      -275.4509 
  11   1.0000     -10.122615      -275.4504 
  12   1.0000      -2.787691       -75.8569 
  13   1.0000      -1.435855       -39.0716 
  14   1.0000      -1.435848       -39.0714 
  15   1.0000      -1.435504       -39.0620 
  16   1.0000      -0.997873       -27.1535 
  17   1.0000      -0.997332       -27.1388 
  18   1.0000      -0.997309       -27.1382 
  19   1.0000      -0.997253       -27.1366 
  20   1.0000      -0.997180       -27.1346 
  21   1.0000      -0.997113       -27.1328 
  22   1.0000      -0.448239       -12.1972 
  23   1.0000      -0.421268       -11.4633 
  24   1.0000      -0.421221       -11.4620 
  25   1.0000      -0.417224       -11.3533 
  26   1.0000      -0.417141       -11.3510 
  27   1.0000      -0.417094       -11.3497 
  28   1.0000      -0.351570        -9.5667 
  29   1.0000      -0.331219        -9.0129 
  30   1.0000      -0.328851        -8.9485 
  31   1.0000      -0.328811        -8.9474 
  32   1.0000      -0.324868        -8.8401 
  33   1.0000      -0.322884        -8.7861 
  34   1.0000      -0.322874        -8.7858 
  35   1.0000      -0.317232        -8.6323 
  36   1.0000      -0.317201        -8.6315 
  37   1.0000      -0.315201        -8.5771 
  38   1.0000      -0.313475        -8.5301 
  39   1.0000      -0.313435        -8.5290 
  40   1.0000      -0.311631        -8.4799 
  41   1.0000      -0.311606        -8.4792 
  42   1.0000      -0.310636        -8.4528 
  43   1.0000      -0.256521        -6.9803 
  44   1.0000      -0.255722        -6.9585 
  45   1.0000      -0.255721        -6.9585 
  46   1.0000      -0.080443        -2.1890 
  47   1.0000      -0.076368        -2.0781 
  48   1.0000      -0.076329        -2.0770 
  49   1.0000       0.051301         1.3960 
  50   0.0000       0.093369         2.5407 
  51   0.0000       0.093371         2.5407 
  52   0.0000       0.111450         3.0327 
  53   0.0000       0.112923         3.0728 
  54   0.0000       0.113018         3.0754 
  55   0.0000       0.120263         3.2725 
  56   0.0000       0.126494         3.4421 
  57   0.0000       0.126495         3.4421 
  58   0.0000       0.126736         3.4487 
  59   0.0000       0.142455         3.8764 
  60   0.0000       0.142466         3.8767 
  61   0.0000       0.154906         4.2152 
  62   0.0000       0.154951         4.2164 
  63   0.0000       0.164190         4.4678 
  64   0.0000       0.164741         4.4828 
  65   0.0000       0.165227         4.4961 
  66   0.0000       0.165240         4.4964 
  67   0.0000       0.174895         4.7591 
  68   0.0000       0.175994         4.7890 
  69   0.0000       0.175996         4.7891 
  70   0.0000       0.190793         5.1917 
  71   0.0000       0.199227         5.4212 
  72   0.0000       0.199422         5.4266 
  73   0.0000       0.199424         5.4266 
  74   0.0000       0.206866         5.6291 
  75   0.0000       0.209636         5.7045 
  76   0.0000       0.209667         5.7053 
  77   0.0000       0.225947         6.1483 
  78   0.0000       0.225966         6.1489 
  79   0.0000       0.233518         6.3543 
  80   0.0000       0.233532         6.3547 
  81   0.0000       0.233934         6.3657 
  82   0.0000       0.250089         6.8053 
  83   0.0000       0.250099         6.8055 
  84   0.0000       0.250277         6.8104 
  85   0.0000       0.266024         7.2389 
  86   0.0000       0.267425         7.2770 
  87   0.0000       0.267444         7.2775 
  88   0.0000       0.270950         7.3729 
  89   0.0000       0.271727         7.3941 
  90   0.0000       0.271732         7.3942 
  91   0.0000       0.299575         8.1519 
  92   0.0000       0.334274         9.0961 
  93   0.0000       0.334286         9.0964 
  94   0.0000       0.343746         9.3538 
  95   0.0000       0.344741         9.3809 
  96   0.0000       0.344747         9.3811 
  97   0.0000       0.353072         9.6076 
  98   0.0000       0.353842         9.6285 
  99   0.0000       0.353857         9.6289 
 100   0.0000       0.360916         9.8210 
 101   0.0000       0.369072        10.0430 
 102   0.0000       0.369084        10.0433 
 103   0.0000       0.369216        10.0469 
 104   0.0000       0.396832        10.7984 
 105   0.0000       0.398146        10.8341 
 106   0.0000       0.398183        10.8351 
 107   0.0000       0.410776        11.1778 
 108   0.0000       0.411471        11.1967 
 109   0.0000       0.411485        11.1971 
 110   0.0000       0.415129        11.2962 
 111   0.0000       0.415148        11.2967 
 112   0.0000       0.447244        12.1701 
 113   0.0000       0.447281        12.1711 
 114   0.0000       0.465167        12.6578 
 115   0.0000       0.466336        12.6896 
 116   0.0000       0.466793        12.7021 
 117   0.0000       0.466822        12.7029 
 118   0.0000       0.468347        12.7444 
 119   0.0000       0.468868        12.7586 
 120   0.0000       0.468912        12.7598 
 121   0.0000       0.470315        12.7979 
 122   0.0000       0.470329        12.7983 
 123   0.0000       0.470385        12.7998 
 124   0.0000       0.475114        12.9285 
 125   0.0000       0.475124        12.9288 
 126   0.0000       0.514964        14.0129 
 127   0.0000       0.544872        14.8267 
 128   0.0000       0.567878        15.4527 
 129   0.0000       0.568548        15.4710 
 130   0.0000       0.568841        15.4790 
 131   0.0000       0.568847        15.4791 
 132   0.0000       0.569546        15.4981 
 133   0.0000       0.569638        15.5006 
 134   0.0000       0.575320        15.6552 
 135   0.0000       0.576822        15.6961 
 136   0.0000       0.576854        15.6970 
 137   0.0000       0.622670        16.9437 
 138   0.0000       0.622679        16.9439 
 139   0.0000       0.622996        16.9526 
 140   0.0000       0.623249        16.9595 
 141   0.0000       0.626322        17.0431 
 142   0.0000       0.648108        17.6359 
 143   0.0000       0.648583        17.6488 
 144   0.0000       0.648665        17.6511 
 145   0.0000       0.655018        17.8239 
 146   0.0000       0.655240        17.8300 
 147   0.0000       0.655280        17.8311 
 148   0.0000       0.679044        18.4777 
 149   0.0000       0.679068        18.4784 
 150   0.0000       0.688452        18.7337 
 151   0.0000       0.688548        18.7364 
 152   0.0000       0.690351        18.7854 
 153   0.0000       0.697790        18.9878 
 154   0.0000       0.697823        18.9887 
 155   0.0000       0.697908        18.9910 
 156   0.0000       0.701029        19.0760 
 157   0.0000       0.701460        19.0877 
 158   0.0000       0.701881        19.0992 
 159   0.0000       0.702006        19.1026 
 160   0.0000       0.705572        19.1996 
 161   0.0000       0.705950        19.2099 
 162   0.0000       0.705967        19.2103 
 163   0.0000       0.706767        19.2321 
 164   0.0000       0.706773        19.2323 
 165   0.0000       0.790502        21.5107 
 166   0.0000       0.790556        21.5121 
 167   0.0000       0.804540        21.8926 
 168   0.0000       0.804606        21.8944 
 169   0.0000       0.807477        21.9726 
 170   0.0000       0.808727        22.0066 
 171   0.0000       0.808755        22.0073 
 172   0.0000       0.816058        22.2061 
 173   0.0000       0.816089        22.2069 
 174   0.0000       0.817215        22.2376 
 175   0.0000       0.817249        22.2385 
 176   0.0000       0.817766        22.2525 
 177   0.0000       0.817787        22.2531 
 178   0.0000       0.842756        22.9326 
 179   0.0000       0.842791        22.9335 
 180   0.0000       0.843717        22.9587 
 181   0.0000       0.844006        22.9666 
 182   0.0000       0.844132        22.9700 
 183   0.0000       0.882479        24.0135 
 184   0.0000       0.882548        24.0153 
 185   0.0000       0.883226        24.0338 
 186   0.0000       0.884775        24.0760 
 187   0.0000       0.895214        24.3600 
 188   0.0000       0.907986        24.7076 
 189   0.0000       0.908012        24.7083 
 190   0.0000       0.917496        24.9663 
 191   0.0000       0.917598        24.9691 
 192   0.0000       0.917640        24.9702 
 193   0.0000       0.970612        26.4117 
 194   0.0000       0.970654        26.4128 
 195   0.0000       0.985813        26.8253 
 196   0.0000       1.001535        27.2531 
 197   0.0000       1.001558        27.2538 
 198   0.0000       1.001706        27.2578 
 199   0.0000       1.004702        27.3393 
 200   0.0000       1.004739        27.3403 
 201   0.0000       1.014410        27.6035 
 202   0.0000       1.014505        27.6061 
 203   0.0000       1.014565        27.6077 
 204   0.0000       1.032496        28.0956 
 205   0.0000       1.032548        28.0971 
 206   0.0000       1.032619        28.0990 
 207   0.0000       1.033211        28.1151 
 208   0.0000       1.039016        28.2731 
 209   0.0000       1.067993        29.0616 
 210   0.0000       1.068261        29.0689 
 211   0.0000       1.068275        29.0692 
 212   0.0000       1.080475        29.4012 
 213   0.0000       1.085014        29.5247 
 214   0.0000       1.085048        29.5257 
 215   0.0000       1.085627        29.5414 
 216   0.0000       1.104984        30.0681 
 217   0.0000       1.105023        30.0692 
 218   0.0000       1.105353        30.0782 
 219   0.0000       1.123039        30.5594 
 220   0.0000       1.123157        30.5626 
 221   0.0000       1.123187        30.5635 
 222   0.0000       1.180295        32.1175 
 223   0.0000       1.180342        32.1188 
 224   0.0000       1.181365        32.1466 
 225   0.0000       1.229184        33.4478 
 226   0.0000       1.229385        33.4533 
 227   0.0000       1.287681        35.0396 
 228   0.0000       1.287724        35.0407 
 229   0.0000       1.288432        35.0600 
 230   0.0000       1.302618        35.4460 
 231   0.0000       1.302713        35.4486 
 232   0.0000       1.302833        35.4519 
 233   0.0000       1.313500        35.7421 
 234   0.0000       1.334892        36.3243 
 235   0.0000       1.336297        36.3625 
 236   0.0000       1.336455        36.3668 
 237   0.0000       1.398347        38.0509 
 238   0.0000       1.398398        38.0523 
 239   0.0000       1.398468        38.0542 
 240   0.0000       1.436097        39.0782 
 241   0.0000       1.436162        39.0800 
 242   0.0000       1.436732        39.0955 
 243   0.0000       1.437209        39.1085 
 244   0.0000       1.437215        39.1086 
 245   0.0000       1.438258        39.1370 
 246   0.0000       1.531164        41.6651 
 247   0.0000       1.531296        41.6687 
 248   0.0000       1.644725        44.7552 
 249   0.0000       1.644735        44.7555 
 250   0.0000       1.645102        44.7655 
 251   0.0000       1.650394        44.9095 
 252   0.0000       1.650693        44.9176 
 253   0.0000       1.650704        44.9179 
 254   0.0000       1.778798        48.4036 
 255   0.0000       1.778846        48.4049 
 256   0.0000       1.778902        48.4064 
 257   0.0000       1.832228        49.8574 
 258   0.0000       1.832273        49.8587 
 259   0.0000       1.860372        50.6233 
 260   0.0000       1.860378        50.6235 
 261   0.0000       1.862007        50.6678 
 262   0.0000       1.864767        50.7429 
 263   0.0000       1.864856        50.7453 
 264   0.0000       1.868762        50.8516 
 265   0.0000       1.870463        50.8979 
 266   0.0000       1.870484        50.8985 
 267   0.0000       1.877807        51.0977 
 268   0.0000       1.878176        51.1078 
 269   0.0000       1.878236        51.1094 
 270   0.0000       1.908459        51.9318 
 271   0.0000       1.919544        52.2335 
 272   0.0000       1.919595        52.2348 
 273   0.0000       1.919746        52.2389 
 274   0.0000       1.924879        52.3786 
 275   0.0000       1.924922        52.3798 
 276   0.0000       1.937597        52.7247 
 277   0.0000       1.984522        54.0016 
 278   0.0000       2.014353        54.8133 
 279   0.0000       2.038996        55.4839 
 280   0.0000       2.039178        55.4889 
 281   0.0000       2.039378        55.4943 
 282   0.0000       2.042160        55.5700 
 283   0.0000       2.042242        55.5722 
 284   0.0000       2.043219        55.5988 
 285   0.0000       2.054304        55.9005 
 286   0.0000       2.054483        55.9053 
 287   0.0000       2.054530        55.9066 
 288   0.0000       2.143645        58.3315 
 289   0.0000       2.143776        58.3351 
 290   0.0000       2.162662        58.8490 
 291   0.0000       2.162732        58.8509 
 292   0.0000       2.219222        60.3881 
 293   0.0000       2.219408        60.3932 
 294   0.0000       2.220235        60.4157 
 295   0.0000       2.288294        62.2677 
 296   0.0000       2.288374        62.2698 
 297   0.0000       2.288393        62.2703 
 298   0.0000       2.372046        64.5467 
 299   0.0000       2.372086        64.5477 
 300   0.0000       2.372135        64.5491 
 301   0.0000       2.375692        64.6459 
 302   0.0000       2.375699        64.6461 
 303   0.0000       2.376031        64.6551 
 304   0.0000       2.405332        65.4524 
 305   0.0000       2.405927        65.4686 
 306   0.0000       2.405994        65.4704 
 307   0.0000       2.465468        67.0888 
 308   0.0000       2.572477        70.0007 
 309   0.0000       2.572527        70.0020 
 310   0.0000       2.578168        70.1555 
 311   0.0000       2.578235        70.1573 
 312   0.0000       2.578464        70.1636 
 313   0.0000       2.634976        71.7013 
 314   0.0000       2.648914        72.0806 
 315   0.0000       2.648970        72.0821 
 316   0.0000       2.681575        72.9694 
 317   0.0000       2.812088        76.5208 
 318   0.0000       2.812097        76.5211 
 319   0.0000       2.812120        76.5217 
 320   0.0000       2.840882        77.3043 
 321   0.0000       2.840924        77.3055 
 322   0.0000       2.841022        77.3081 
 323   0.0000       2.841071        77.3095 
 324   0.0000       2.841230        77.3138 
 325   0.0000       2.841279        77.3151 
 326   0.0000       2.863401        77.9171 
 327   0.0000       2.864076        77.9355 
 328   0.0000       2.864152        77.9375 
 329   0.0000       2.922172        79.5163 
 330   0.0000       2.922519        79.5258 
 331   0.0000       2.922567        79.5271 
 332   0.0000       2.977950        81.0341 
 333   0.0000       2.977969        81.0347 
 334   0.0000       2.980032        81.0908 
 335   0.0000       2.980908        81.1146 
 336   0.0000       2.980962        81.1161 
 337   0.0000       2.988573        81.3232 
 338   0.0000       2.988683        81.3262 
 339   0.0000       2.989316        81.3434 
 340   0.0000       3.025362        82.3243 
 341   0.0000       3.101384        84.3930 
 342   0.0000       3.101446        84.3946 
 343   0.0000       3.102410        84.4209 
 344   0.0000       3.103570        84.4524 
 345   0.0000       3.120933        84.9249 
 346   0.0000       3.120959        84.9256 
 347   0.0000       3.121390        84.9373 
 348   0.0000       3.164697        86.1158 
 349   0.0000       3.164739        86.1169 
 350   0.0000       3.164935        86.1223 
 351   0.0000       3.167088        86.1808 
 352   0.0000       3.230785        87.9141 
 353   0.0000       3.230873        87.9165 
 354   0.0000       3.230927        87.9180 
 355   0.0000       3.235120        88.0321 
 356   0.0000       3.235141        88.0327 
 357   0.0000       3.275616        89.1340 
 358   0.0000       3.276382        89.1549 
 359   0.0000       3.276407        89.1556 
 360   0.0000       3.324681        90.4692 
 361   0.0000       3.324702        90.4697 
 362   0.0000       3.324721        90.4703 
 363   0.0000       3.330404        90.6249 
 364   0.0000       3.391858        92.2972 
 365   0.0000       3.392687        92.3197 
 366   0.0000       3.392907        92.3257 
 367   0.0000       3.397844        92.4600 
 368   0.0000       3.397998        92.4642 
 369   0.0000       3.398765        92.4851 
 370   0.0000       3.400572        92.5343 
 371   0.0000       3.400612        92.5353 
 372   0.0000       3.408188        92.7415 
 373   0.0000       3.408342        92.7457 
 374   0.0000       3.410304        92.7991 
 375   0.0000       3.482248        94.7568 
 376   0.0000       3.482257        94.7570 
 377   0.0000       3.482890        94.7743 
 378   0.0000       3.542824        96.4051 
 379   0.0000       3.543239        96.4164 
 380   0.0000       3.543281        96.4176 
 381   0.0000       3.568809        97.1122 
 382   0.0000       3.568853        97.1134 
 383   0.0000       3.608859        98.2021 
 384   0.0000       3.679726       100.1304 
 385   0.0000       3.680385       100.1484 
 386   0.0000       3.680459       100.1504 
 387   0.0000       3.703384       100.7742 
 388   0.0000       3.735088       101.6369 
 389   0.0000       3.735128       101.6380 
 390   0.0000       3.780035       102.8600 
 391   0.0000       3.780225       102.8651 
 392   0.0000       3.780246       102.8657 
 393   0.0000       3.780403       102.8700 
 394   0.0000       3.780479       102.8721 
 395   0.0000       3.947717       107.4228 
 396   0.0000       3.947786       107.4247 
 397   0.0000       3.948284       107.4383 
 398   0.0000       3.970875       108.0530 
 399   0.0000       3.971575       108.0721 
 400   0.0000       3.971725       108.0761 
 401   0.0000       3.978599       108.2632 
 402   0.0000       3.978674       108.2652 
 403   0.0000       3.979097       108.2767 
 404   0.0000       4.382649       119.2579 
 405   0.0000       4.417160       120.1970 
 406   0.0000       4.417239       120.1992 
 407   0.0000       4.545405       123.6868 
 408   0.0000       4.545941       123.7013 
 409   0.0000       4.545988       123.7026 
 410   0.0000       4.583212       124.7155 
 411   0.0000       4.650466       126.5456 
 412   0.0000       4.650556       126.5481 
 413   0.0000       4.865133       132.3870 
 414   0.0000       4.865194       132.3887 
 415   0.0000       4.865241       132.3899 
 416   0.0000       5.240577       142.6033 
 417   0.0000       5.240600       142.6040 
 418   0.0000       5.240614       142.6044 
 419   0.0000       5.240618       142.6045 
 420   0.0000       5.240632       142.6048 
 421   0.0000       5.240634       142.6049 
 422   0.0000       5.240860       142.6110 
 423   0.0000       5.240908       142.6123 
 424   0.0000       5.240917       142.6126 
 425   0.0000       5.241488       142.6281 
 426   0.0000       5.241500       142.6285 
 427   0.0000       5.241508       142.6287 
 428   0.0000       5.659596       154.0054 
 429   0.0000       5.659646       154.0068 
 430   0.0000       5.668149       154.2382 
 431   0.0000       5.668185       154.2391 
 432   0.0000       5.668243       154.2407 
 433   0.0000       5.668438       154.2460 
 434   0.0000       5.670790       154.3100 
 435   0.0000       5.670802       154.3104 
 436   0.0000       5.670853       154.3118 
 437   0.0000       5.683658       154.6602 
 438   0.0000       5.721427       155.6879 
 439   0.0000       5.721465       155.6890 
 440   0.0000       6.371475       173.3767 
 441   0.0000       6.371508       173.3775 
 442   0.0000       6.371683       173.3823 
 443   0.0000       6.480628       176.3469 
 444   0.0000       6.480863       176.3533 
 445   0.0000       6.480879       176.3537 
 446   0.0000       6.482372       176.3943 
 447   0.0000       6.482378       176.3945 
 448   0.0000       6.482658       176.4021 
 449   0.0000       6.500426       176.8856 
 450   0.0000       6.500454       176.8863 
 451   0.0000       6.500574       176.8896 
 452   0.0000       6.545551       178.1135 
 453   0.0000       6.545625       178.1155 
 454   0.0000       6.545775       178.1196 
 455   0.0000       6.556867       178.4214 
 456   0.0000       6.572918       178.8582 
 457   0.0000       6.572955       178.8592 
 458   0.0000       6.579873       179.0474 
 459   0.0000       6.580210       179.0566 
 460   0.0000       6.580218       179.0568 
 461   0.0000       6.607118       179.7888 
 462   0.0000       6.607175       179.7904 
 463   0.0000       6.629432       180.3960 
 464   0.0000       6.795332       184.9104 
 465   0.0000       6.812137       185.3677 
 466   0.0000       6.812190       185.3691 
 467   0.0000       6.819772       185.5754 
 468   0.0000       6.819799       185.5762 
 469   0.0000       6.819854       185.5777 
 470   0.0000       6.984853       190.0675 
 471   0.0000       6.985176       190.0763 
 472   0.0000       6.985322       190.0803 
 473   0.0000       6.998811       190.4473 
 474   0.0000       6.998852       190.4484 
 475   0.0000       6.999036       190.4534 
 476   0.0000       7.002274       190.5416 
 477   0.0000       7.002445       190.5462 
 478   0.0000       7.002470       190.5469 
 479   0.0000       7.006648       190.6606 
 480   0.0000       7.006950       190.6688 
 481   0.0000       7.006980       190.6696 
 482   0.0000       7.336117       199.6259 
 483   0.0000       7.336197       199.6281 
 484   0.0000       7.336233       199.6290 
 485   0.0000       7.357751       200.2146 
 486   0.0000       7.357794       200.2158 
 487   0.0000       7.373164       200.6340 
 488   0.0000      23.214629       631.7022 
 489   0.0000      23.214638       631.7024 
 490   0.0000      23.299231       634.0043 
 491   0.0000      23.309818       634.2924 
 492   0.0000      23.309936       634.2956 
 493   0.0000      23.310179       634.3022 
 494   0.0000      44.317278      1205.9345 
 495   0.0000      44.317315      1205.9354 
 496   0.0000      44.317404      1205.9379 
 497   0.0000      44.317578      1205.9426 
 498   0.0000      44.405492      1208.3349 
 499   0.0000      44.405538      1208.3361 
 500   0.0000      48.924306      1331.2980 
 501   0.0000      48.927102      1331.3741 
 502   0.0000      48.937603      1331.6599 
 503   0.0000      70.959103      1930.8954 
 504   0.0000     582.628492     15854.1273 

                 SPIN DOWN ORBITALS
  NO   OCC          E(Eh)            E(eV) 
   0   1.0000     -19.049314      -518.3582 
   1   1.0000     -19.049302      -518.3578 
   2   1.0000     -19.049300      -518.3578 
   3   1.0000     -19.049278      -518.3572 
   4   1.0000     -19.049221      -518.3556 
   5   1.0000     -19.049169      -518.3542 
   6   1.0000     -10.120625      -275.3962 
   7   1.0000     -10.120614      -275.3959 
   8   1.0000     -10.120603      -275.3956 
   9   1.0000     -10.120589      -275.3952 
  10   1.0000     -10.120547      -275.3941 
  11   1.0000     -10.120524      -275.3935 
  12   1.0000      -2.790170       -75.9244 
  13   1.0000      -1.438861       -39.1534 
  14   1.0000      -1.438772       -39.1510 
  15   1.0000      -1.438770       -39.1509 
  16   1.0000      -0.995152       -27.0795 
  17   1.0000      -0.994634       -27.0654 
  18   1.0000      -0.994610       -27.0647 
  19   1.0000      -0.994539       -27.0628 
  20   1.0000      -0.994481       -27.0612 
  21   1.0000      -0.994400       -27.0590 
  22   1.0000      -0.442185       -12.0325 
  23   1.0000      -0.416616       -11.3367 
  24   1.0000      -0.416556       -11.3351 
  25   1.0000      -0.413027       -11.2390 
  26   1.0000      -0.412764       -11.2319 
  27   1.0000      -0.412705       -11.2303 
  28   1.0000      -0.348275        -9.4770 
  29   1.0000      -0.325616        -8.8605 
  30   1.0000      -0.325601        -8.8601 
  31   1.0000      -0.321505        -8.7486 
  32   1.0000      -0.319342        -8.6897 
  33   1.0000      -0.319279        -8.6880 
  34   1.0000      -0.315743        -8.5918 
  35   1.0000      -0.313970        -8.5436 
  36   1.0000      -0.309705        -8.4275 
  37   1.0000      -0.309635        -8.4256 
  38   1.0000      -0.309437        -8.4202 
  39   1.0000      -0.307861        -8.3773 
  40   1.0000      -0.307828        -8.3764 
  41   1.0000      -0.305116        -8.3026 
  42   1.0000      -0.305080        -8.3017 
  43   1.0000      -0.249452        -6.7879 
  44   1.0000      -0.249449        -6.7879 
  45   1.0000      -0.248999        -6.7756 
  46   1.0000      -0.074887        -2.0378 
  47   1.0000      -0.074878        -2.0375 
  48   1.0000      -0.071893        -1.9563 
  49   0.0000       0.097251         2.6463 
  50   0.0000       0.097282         2.6472 
  51   0.0000       0.105099         2.8599 
  52   0.0000       0.111227         3.0266 
  53   0.0000       0.122695         3.3387 
  54   0.0000       0.125902         3.4260 
  55   0.0000       0.125907         3.4261 
  56   0.0000       0.126970         3.4550 
  57   0.0000       0.127497         3.4694 
  58   0.0000       0.127538         3.4705 
  59   0.0000       0.141950         3.8627 
  60   0.0000       0.141964         3.8630 
  61   0.0000       0.164612         4.4793 
  62   0.0000       0.164621         4.4796 
  63   0.0000       0.165029         4.4907 
  64   0.0000       0.166589         4.5331 
  65   0.0000       0.171382         4.6635 
  66   0.0000       0.171395         4.6639 
  67   0.0000       0.174983         4.7615 
  68   0.0000       0.175377         4.7723 
  69   0.0000       0.175383         4.7724 
  70   0.0000       0.191111         5.2004 
  71   0.0000       0.198343         5.3972 
  72   0.0000       0.198689         5.4066 
  73   0.0000       0.198689         5.4066 
  74   0.0000       0.211020         5.7421 
  75   0.0000       0.211029         5.7424 
  76   0.0000       0.213491         5.8094 
  77   0.0000       0.226104         6.1526 
  78   0.0000       0.226128         6.1533 
  79   0.0000       0.233214         6.3461 
  80   0.0000       0.233826         6.3627 
  81   0.0000       0.233839         6.3631 
  82   0.0000       0.250229         6.8091 
  83   0.0000       0.250231         6.8091 
  84   0.0000       0.250665         6.8210 
  85   0.0000       0.266653         7.2560 
  86   0.0000       0.266666         7.2563 
  87   0.0000       0.266760         7.2589 
  88   0.0000       0.272284         7.4092 
  89   0.0000       0.272286         7.4093 
  90   0.0000       0.273920         7.4537 
  91   0.0000       0.300042         8.1646 
  92   0.0000       0.334378         9.0989 
  93   0.0000       0.334393         9.0993 
  94   0.0000       0.345620         9.4048 
  95   0.0000       0.345636         9.4052 
  96   0.0000       0.348057         9.4711 
  97   0.0000       0.354083         9.6351 
  98   0.0000       0.354099         9.6355 
  99   0.0000       0.354487         9.6461 
 100   0.0000       0.362008         9.8507 
 101   0.0000       0.368841        10.0367 
 102   0.0000       0.370179        10.0731 
 103   0.0000       0.370203        10.0737 
 104   0.0000       0.397668        10.8211 
 105   0.0000       0.398018        10.8306 
 106   0.0000       0.398044        10.8313 
 107   0.0000       0.411500        11.1975 
 108   0.0000       0.411516        11.1979 
 109   0.0000       0.412357        11.2208 
 110   0.0000       0.416104        11.3228 
 111   0.0000       0.416119        11.3232 
 112   0.0000       0.446966        12.1626 
 113   0.0000       0.447006        12.1636 
 114   0.0000       0.465622        12.6702 
 115   0.0000       0.466552        12.6955 
 116   0.0000       0.466575        12.6961 
 117   0.0000       0.469114        12.7652 
 118   0.0000       0.469139        12.7659 
 119   0.0000       0.469161        12.7665 
 120   0.0000       0.469361        12.7720 
 121   0.0000       0.469511        12.7760 
 122   0.0000       0.470203        12.7949 
 123   0.0000       0.470221        12.7954 
 124   0.0000       0.474682        12.9167 
 125   0.0000       0.474703        12.9173 
 126   0.0000       0.514252        13.9935 
 127   0.0000       0.546004        14.8575 
 128   0.0000       0.569984        15.5100 
 129   0.0000       0.569994        15.5103 
 130   0.0000       0.571103        15.5405 
 131   0.0000       0.572003        15.5650 
 132   0.0000       0.572093        15.5674 
 133   0.0000       0.574718        15.6389 
 134   0.0000       0.577328        15.7099 
 135   0.0000       0.577363        15.7108 
 136   0.0000       0.578266        15.7354 
 137   0.0000       0.623192        16.9579 
 138   0.0000       0.623670        16.9709 
 139   0.0000       0.623683        16.9713 
 140   0.0000       0.624992        17.0069 
 141   0.0000       0.627694        17.0804 
 142   0.0000       0.649223        17.6663 
 143   0.0000       0.649324        17.6690 
 144   0.0000       0.652446        17.7540 
 145   0.0000       0.656511        17.8646 
 146   0.0000       0.656549        17.8656 
 147   0.0000       0.656751        17.8711 
 148   0.0000       0.679489        18.4898 
 149   0.0000       0.679509        18.4904 
 150   0.0000       0.690772        18.7969 
 151   0.0000       0.693419        18.8689 
 152   0.0000       0.693554        18.8726 
 153   0.0000       0.697740        18.9865 
 154   0.0000       0.698953        19.0195 
 155   0.0000       0.698969        19.0199 
 156   0.0000       0.702650        19.1201 
 157   0.0000       0.703600        19.1459 
 158   0.0000       0.703703        19.1487 
 159   0.0000       0.704758        19.1774 
 160   0.0000       0.707200        19.2439 
 161   0.0000       0.707266        19.2457 
 162   0.0000       0.708113        19.2687 
 163   0.0000       0.708115        19.2688 
 164   0.0000       0.708284        19.2734 
 165   0.0000       0.793071        21.5805 
 166   0.0000       0.793126        21.5821 
 167   0.0000       0.805591        21.9212 
 168   0.0000       0.805661        21.9232 
 169   0.0000       0.809837        22.0368 
 170   0.0000       0.809861        22.0374 
 171   0.0000       0.810553        22.0563 
 172   0.0000       0.818296        22.2670 
 173   0.0000       0.818332        22.2680 
 174   0.0000       0.818818        22.2812 
 175   0.0000       0.818831        22.2815 
 176   0.0000       0.819975        22.3126 
 177   0.0000       0.820101        22.3161 
 178   0.0000       0.843595        22.9554 
 179   0.0000       0.844522        22.9806 
 180   0.0000       0.844552        22.9814 
 181   0.0000       0.845445        23.0057 
 182   0.0000       0.845591        23.0097 
 183   0.0000       0.882750        24.0209 
 184   0.0000       0.885555        24.0972 
 185   0.0000       0.885626        24.0991 
 186   0.0000       0.887908        24.1612 
 187   0.0000       0.896617        24.3982 
 188   0.0000       0.907544        24.6955 
 189   0.0000       0.907572        24.6963 
 190   0.0000       0.918618        24.9969 
 191   0.0000       0.918666        24.9982 
 192   0.0000       0.919788        25.0287 
 193   0.0000       0.972197        26.4548 
 194   0.0000       0.972244        26.4561 
 195   0.0000       0.986775        26.8515 
 196   0.0000       1.002538        27.2805 
 197   0.0000       1.002546        27.2807 
 198   0.0000       1.004430        27.3319 
 199   0.0000       1.009381        27.4667 
 200   0.0000       1.009436        27.4682 
 201   0.0000       1.015029        27.6204 
 202   0.0000       1.015099        27.6222 
 203   0.0000       1.015300        27.6277 
 204   0.0000       1.031791        28.0765 
 205   0.0000       1.032405        28.0932 
 206   0.0000       1.033790        28.1309 
 207   0.0000       1.033843        28.1323 
 208   0.0000       1.040930        28.3252 
 209   0.0000       1.070237        29.1226 
 210   0.0000       1.070267        29.1234 
 211   0.0000       1.071613        29.1601 
 212   0.0000       1.085223        29.5304 
 213   0.0000       1.085965        29.5506 
 214   0.0000       1.087170        29.5834 
 215   0.0000       1.087184        29.5838 
 216   0.0000       1.105114        30.0717 
 217   0.0000       1.106998        30.1230 
 218   0.0000       1.107041        30.1241 
 219   0.0000       1.123405        30.5694 
 220   0.0000       1.123436        30.5702 
 221   0.0000       1.125040        30.6139 
 222   0.0000       1.183730        32.2109 
 223   0.0000       1.184332        32.2273 
 224   0.0000       1.184370        32.2283 
 225   0.0000       1.232001        33.5245 
 226   0.0000       1.232204        33.5300 
 227   0.0000       1.288780        35.0695 
 228   0.0000       1.292592        35.1732 
 229   0.0000       1.292623        35.1741 
 230   0.0000       1.304773        35.5047 
 231   0.0000       1.304920        35.5087 
 232   0.0000       1.307805        35.5872 
 233   0.0000       1.312514        35.7153 
 234   0.0000       1.338903        36.4334 
 235   0.0000       1.339063        36.4378 
 236   0.0000       1.339636        36.4533 
 237   0.0000       1.399302        38.0769 
 238   0.0000       1.399359        38.0785 
 239   0.0000       1.399718        38.0883 
 240   0.0000       1.436692        39.0944 
 241   0.0000       1.436762        39.0963 
 242   0.0000       1.438093        39.1325 
 243   0.0000       1.438320        39.1387 
 244   0.0000       1.438324        39.1388 
 245   0.0000       1.439071        39.1591 
 246   0.0000       1.532891        41.7121 
 247   0.0000       1.533016        41.7155 
 248   0.0000       1.643825        44.7308 
 249   0.0000       1.646402        44.8009 
 250   0.0000       1.646433        44.8017 
 251   0.0000       1.650361        44.9086 
 252   0.0000       1.650368        44.9088 
 253   0.0000       1.653682        44.9990 
 254   0.0000       1.779105        48.4119 
 255   0.0000       1.779167        48.4136 
[...]
     19      -0.263900  -0.154048   0.317911   0.154771   0.072517  -0.065607
     20      -0.046573   0.215975  -0.074111   0.213188   0.256949  -0.197697
     21      -0.114361   0.184779   0.012235   0.012971  -0.024852  -0.023718
     22      -0.126610  -0.069985   0.154848   0.041679   0.014798  -0.002448
     23       0.000965  -0.090889   0.061618  -0.267958  -0.345196   0.242366
     24      -0.125849  -0.076398  -0.148986  -0.045845   0.020294  -0.025088
     25       0.015492  -0.002016   0.107519  -0.341847   0.014721  -0.372631
     26      -0.150709  -0.094358   0.123010   0.038681   0.021308   0.020319
     27       0.123946   0.076726   0.149459   0.044895  -0.020335   0.024451
     28       0.015265  -0.001165  -0.107995   0.342065  -0.015419   0.372643
     29       0.152254   0.094059  -0.122397  -0.039841  -0.021206  -0.021116
     30       0.114914  -0.184073  -0.012330  -0.013062   0.024886   0.023206
     31       0.128647   0.069690  -0.154983  -0.041608  -0.014619   0.002694
     32       0.001472   0.086003  -0.059980   0.267395   0.344702  -0.243864
     33       0.019870  -0.118034  -0.057239   0.240792  -0.348050  -0.249095
     34       0.129338   0.069074   0.154844   0.040782  -0.017949  -0.002992
     35      -0.113206   0.164232  -0.022231   0.031321  -0.093650  -0.024985
     36      -0.022193   0.122463   0.058697  -0.241257   0.348590   0.247705
     37      -0.127316  -0.069363  -0.154812  -0.040779   0.018120   0.002730
     38       0.112196  -0.164042   0.022464  -0.031543   0.093722   0.024167
                 24         25         26         27         28         29    
      0      -0.000141  -0.017265   0.010632  -0.000109   0.000202   0.061348
      1       0.000006  -0.013567   0.000196  -0.000004   0.000011  -0.038143
      2      -0.000122   0.014168   0.013039  -0.000127  -0.000168  -0.050473
      3      -0.056087   0.057074  -0.107307  -0.089207  -0.037678  -0.009557
      4      -0.292358  -0.110261   0.235394  -0.092362  -0.339539   0.193441
      5       0.112362  -0.247373   0.358989  -0.460711   0.027774   0.319756
      6      -0.382485  -0.394814  -0.038996  -0.063217  -0.295519  -0.320478
      7      -0.066356   0.073537  -0.001973  -0.009375  -0.000935   0.006219
      8       0.316763   0.323397  -0.043319   0.034169  -0.364614   0.265582
      9       0.058277   0.056831  -0.100974   0.092238   0.037226  -0.008952
     10       0.291107  -0.106415   0.240331   0.081736   0.341751   0.192100
     11      -0.118240  -0.246707   0.372397   0.449959  -0.023851   0.318553
     12       0.382501  -0.393147  -0.032666   0.064823   0.298937  -0.321166
     13       0.066456   0.073312   0.001992   0.009296  -0.002146   0.006181
     14      -0.314358   0.327423  -0.048756  -0.032530   0.361841   0.264672
     15       0.121711   0.254742   0.372611  -0.436104  -0.006421  -0.315408
     16       0.294360  -0.112403  -0.236341   0.070301  -0.342838   0.190928
     17      -0.034175  -0.008219  -0.035363  -0.173810   0.043555  -0.052848
     18      -0.126511   0.254749   0.384317   0.425010   0.003378  -0.313705
     19      -0.293682  -0.106666  -0.241339  -0.059549   0.344247   0.189565
     20       0.035160  -0.008339  -0.026468   0.174783  -0.043985  -0.053321
     21      -0.013085  -0.067320  -0.091110   0.151853   0.002513   0.084472
     22      -0.087380   0.033625   0.071800  -0.036739   0.105403  -0.055218
     23      -0.047439  -0.106417  -0.182412  -0.026539  -0.007687   0.065562
     24      -0.120580   0.137875   0.011237  -0.028168  -0.088650   0.095963
     25       0.018315   0.121074   0.001652   0.024696  -0.000967   0.037873
     26       0.098712  -0.114069   0.017059   0.017053  -0.107354  -0.078859
     27       0.120525   0.137816   0.013741   0.027767   0.087340   0.095587
     28      -0.018219   0.121052  -0.001945  -0.024689   0.001249   0.037807
     29      -0.099644  -0.113572   0.014925  -0.017430   0.108430  -0.079357
     30       0.014201  -0.067180  -0.095681  -0.149052  -0.001864   0.083656
     31       0.087223   0.031735   0.073714   0.033359  -0.105685  -0.054585
     32       0.049626  -0.106269  -0.179222   0.030875   0.009222   0.065601
     33       0.046803   0.090155  -0.157189   0.059022  -0.013040  -0.048507
     34      -0.086440   0.032009  -0.073982  -0.040028  -0.104146  -0.055668
     35       0.023824   0.086014  -0.128849  -0.139842   0.009018  -0.094923
     36      -0.044299   0.090603  -0.161258  -0.055326   0.011436  -0.048244
     37       0.086785   0.033289  -0.072041   0.043414   0.103612  -0.056290
     38      -0.021814   0.086263  -0.124866   0.143448  -0.010236  -0.095603
                 30         31         32         33         34         35    
      0       0.002589  -0.036305  -0.020963  -0.000007   0.000007  -0.000217
      1       0.000244   0.000409  -0.063093   0.000012  -0.000000   0.000003
      2       0.003321  -0.044275   0.016761   0.000006   0.000007  -0.000272
      3       0.028110  -0.019252   0.020100   0.404814  -0.244718   0.398931
      4       0.381515  -0.118087   0.420725  -0.039917   0.011810  -0.035768
      5      -0.224487   0.127773  -0.218671  -0.015179   0.022606  -0.020597
      6       0.150738   0.398792   0.046320  -0.007807  -0.024151   0.000290
      7       0.000973   0.001895  -0.000208   0.002653   0.466889  -0.007062
      8       0.180174   0.483688  -0.032460  -0.008974   0.018333  -0.000440
      9       0.028345  -0.019731   0.020210  -0.405789   0.248632   0.396994
     10       0.380512  -0.118361   0.420165   0.040591  -0.012397  -0.036257
     11      -0.221202   0.126698  -0.218616   0.015817  -0.023331  -0.021165
     12       0.149596   0.398788   0.046730   0.007608   0.022447   0.000005
     13      -0.000900  -0.002028  -0.000252  -0.003880  -0.466852  -0.001884
     14       0.181042   0.483545  -0.031931   0.009139  -0.020500  -0.000241
     15      -0.226030   0.125785   0.219720   0.094130   0.068061  -0.098931
     16      -0.384492   0.112865   0.419576  -0.041129  -0.011709   0.037333
     17      -0.015035   0.004995   0.021860  -0.397939  -0.229723   0.393978
     18      -0.222829   0.124907   0.219593  -0.095090  -0.069585  -0.099123
     19      -0.383471   0.113055   0.418945   0.041955   0.012360   0.037909
     20      -0.014073   0.004317   0.021643   0.399044   0.233509   0.391648
     21       0.072952  -0.029051  -0.072153  -0.066420  -0.040074   0.068251
     22       0.131456  -0.041366  -0.131101   0.026237   0.010331  -0.024544
     23       0.011260  -0.019479  -0.001522   0.278409   0.160286  -0.289503
     24      -0.050181  -0.127889  -0.010129  -0.002669  -0.014690   0.000007
     25       0.000011   0.000547  -0.005331   0.002600   0.321565   0.001458
     26      -0.060843  -0.154815   0.006241  -0.003053   0.013506   0.000131
     27      -0.050679  -0.127780  -0.009980   0.002712   0.015929  -0.000180
     28      -0.000074  -0.000521  -0.005317  -0.001846  -0.321588   0.005075
     29      -0.060465  -0.154967   0.006443   0.003024  -0.011916   0.000258
     30       0.071869  -0.028513  -0.072144   0.067231   0.041115   0.068485
     31       0.131035  -0.041442  -0.130772  -0.026840  -0.010823  -0.024954
     32       0.011099  -0.019887  -0.001349  -0.279324  -0.163081  -0.287888
     33      -0.002270  -0.013902  -0.012399   0.284130  -0.172173  -0.290907
     34      -0.130208   0.043096  -0.131297  -0.025871   0.010765   0.023786
     35       0.072488  -0.032883   0.070772  -0.011851   0.008974   0.011341
     36      -0.002319  -0.013378  -0.012232  -0.283301   0.169296  -0.292229
     37      -0.130627   0.042987  -0.131602   0.025375  -0.010321   0.023442
     38       0.073573  -0.033354   0.070777   0.011297  -0.008516   0.010852
                 36         37         38    
      0       0.000298  -0.001175   0.000001
      1       0.000820   0.000964   0.000000
      2      -0.000238   0.000958   0.000001
      3      -0.184683   0.359662  -0.330320
      4       0.017189  -0.029192   0.025035
      5       0.010584  -0.017154   0.009953
      6       0.028025   0.008974   0.014344
      7      -0.508509  -0.255029  -0.345971
      8      -0.021100  -0.006420  -0.010500
      9      -0.183302   0.358777   0.329729
     10       0.017325  -0.029632  -0.025459
     11       0.010903  -0.017815  -0.010546
     12       0.026087   0.008005  -0.013075
     13      -0.508488  -0.255095   0.346026
     14      -0.023614  -0.007688   0.012158
     15      -0.043932   0.085525   0.073442
     16       0.016809  -0.029779  -0.025724
     17       0.170666  -0.346397  -0.321594
     18      -0.044024   0.086049  -0.073942
     19       0.016982  -0.030314   0.026226
     20       0.169365  -0.345364   0.320777
     21       0.030105  -0.060549  -0.050911
     22      -0.010623   0.021266   0.017965
     23      -0.125952   0.256979   0.221682
     24      -0.015621  -0.006723   0.009130
     25       0.372979   0.188161  -0.238358
     26       0.014442   0.006331  -0.008519
     27      -0.017054  -0.007437  -0.010038
     28       0.372990   0.188111   0.238314
     29       0.012582   0.005398   0.007334
     30       0.030180  -0.060951   0.051276
     31      -0.010767   0.021659  -0.018320
     32      -0.125043   0.256251  -0.221120
     33       0.134836  -0.265563  -0.227310
     34      -0.010952   0.021148   0.017769
     35      -0.005681   0.010349   0.007578
     36       0.135799  -0.266182   0.227711
     37      -0.010837   0.020825  -0.017470
     38      -0.005448   0.009854  -0.007150


-----------
IR SPECTRUM
-----------

 Mode   freq       eps      Int      T**2         TX        TY        TZ
       cm**-1   L/(mol*cm) km/mol    a.u.
----------------------------------------------------------------------------
  7:     35.79   0.000150    0.76  0.001311  ( 0.026824  0.008856 -0.022651)
  8:     44.51   0.000062    0.31  0.000432  ( 0.013732  0.000714  0.015591)
  9:     57.51   0.000002    0.01  0.000011  ( 0.002189 -0.000080  0.002480)
 10:     63.86   0.000086    0.43  0.000419  ( 0.010007 -0.016062 -0.007808)
 11:     64.09   0.000049    0.25  0.000237  ( 0.007595 -0.012004 -0.005937)
 12:     75.29   0.000000    0.00  0.000000  ( 0.000052 -0.000026  0.000096)
 13:     76.87   0.000123    0.62  0.000500  (-0.008102 -0.019096  0.008330)
 14:     77.51   0.000156    0.79  0.000628  ( 0.016196  0.000986  0.019097)
 15:    289.20   0.003052   15.42  0.003294  ( 0.033318 -0.000469  0.046725)
 16:    297.84   0.002869   14.50  0.003006  ( 0.044368  0.008674 -0.031027)
 17:    343.28   0.002633   13.31  0.002394  (-0.004770 -0.048530  0.004004)
 18:    346.32   0.000003    0.01  0.000003  ( 0.000162  0.001605 -0.000131)
 19:    365.96   0.000000    0.00  0.000000  ( 0.000217 -0.000359 -0.000217)
 20:    380.69   0.000000    0.00  0.000000  ( 0.000097 -0.000022  0.000130)
 21:    399.36   0.000000    0.00  0.000000  (-0.000120  0.000015 -0.000182)
 22:    402.44   0.000000    0.00  0.000000  ( 0.000185  0.000029 -0.000156)
 23:    424.85   0.000000    0.00  0.000000  ( 0.000038 -0.000001  0.000034)
 24:    453.07   0.000000    0.00  0.000000  (-0.000042 -0.000029  0.000032)
 25:    455.76   0.001917    9.69  0.001312  (-0.024395 -0.017613  0.020171)
 26:    467.28   0.001605    8.11  0.001072  ( 0.020809  0.000081  0.025282)
 27:    482.67   0.000001    0.00  0.000001  (-0.000448 -0.000001 -0.000559)
 28:    489.06   0.000000    0.00  0.000000  ( 0.000200 -0.000015 -0.000129)
 29:    541.17   0.001613    8.15  0.000930  (-0.020446  0.015098  0.016853)
 30:    545.69   0.000000    0.00  0.000000  ( 0.000260 -0.000095  0.000383)
 31:    581.04   0.003961   20.02  0.002127  ( 0.029393 -0.000411  0.035544)
 32:    586.65   0.006271   31.69  0.003336  ( 0.013279  0.055213 -0.010549)
 33:   1793.26   0.000004    0.02  0.000001  (-0.000570 -0.000207  0.000552)
 34:   1846.73   0.000007    0.04  0.000001  ( 0.000686  0.000014  0.000872)
 35:   1903.69   0.577340  2917.64  0.094641  ( 0.193411 -0.002072  0.239225)
 36:   1921.76   0.563324  2846.81  0.091475  (-0.110139 -0.268074  0.086488)
 37:   1945.09   0.523385  2644.97  0.083970  ( 0.197328 -0.138749 -0.160563)
 38:   2069.05   0.000000    0.00  0.000000  (-0.000077  0.000023 -0.000111)

* The epsilon (eps) is given for a Dirac delta lineshape.
** The dipole moment derivative (T) already includes vibrational overlap.

The first frequency considered to be a vibration is 7
The total number of vibrations considered is 32


--------------------------
THERMOCHEMISTRY AT 298.15K
--------------------------

Temperature         ... 298.15 K
Pressure            ... 1.00 atm
Total Mass          ... 351.91 AMU

Throughout the following assumptions are being made:
  (1) The electronic state is orbitally nondegenerate
      but the spin degeneracy is treated
  (2) There are no thermally accessible electronically excited states
  (3) Hindered rotations indicated by low frequency modes are not
      treated as such but are treated as vibrations and this may
      cause some error
  (4) All equations used are the standard statistical mechanics
      equations for an ideal gas
  (5) All vibrations are strictly harmonic

freq.      35.79  E(vib)   ...       0.54 
freq.      44.51  E(vib)   ...       0.53 
freq.      57.51  E(vib)   ...       0.51 
freq.      63.86  E(vib)   ...       0.51 
freq.      64.09  E(vib)   ...       0.51 
freq.      75.29  E(vib)   ...       0.49 
freq.      76.87  E(vib)   ...       0.49 
freq.      77.51  E(vib)   ...       0.49 
freq.     289.20  E(vib)   ...       0.27 
freq.     297.84  E(vib)   ...       0.27 
freq.     343.28  E(vib)   ...       0.23 
freq.     346.32  E(vib)   ...       0.23 
freq.     365.96  E(vib)   ...       0.22 
freq.     380.69  E(vib)   ...       0.21 
freq.     399.36  E(vib)   ...       0.19 
freq.     402.44  E(vib)   ...       0.19 
freq.     424.85  E(vib)   ...       0.18 
freq.     453.07  E(vib)   ...       0.16 
freq.     455.76  E(vib)   ...       0.16 
freq.     467.28  E(vib)   ...       0.16 
freq.     482.67  E(vib)   ...       0.15 
freq.     489.06  E(vib)   ...       0.15 
freq.     541.17  E(vib)   ...       0.12 
freq.     545.69  E(vib)   ...       0.12 
freq.     581.04  E(vib)   ...       0.11 
freq.     586.65  E(vib)   ...       0.11 
freq.    1793.26  E(vib)   ...       0.00 
freq.    1846.73  E(vib)   ...       0.00 
freq.    1903.69  E(vib)   ...       0.00 
freq.    1921.76  E(vib)   ...       0.00 
freq.    1945.09  E(vib)   ...       0.00 
freq.    2069.05  E(vib)   ...       0.00 

------------
INNER ENERGY
------------

The inner energy is: U= E(el) + E(ZPE) + E(vib) + E(rot) + E(trans)
    E(el)   - is the total energy from the electronic structure calculation
              = E(kin-el) + E(nuc-el) + E(el-el) + E(nuc-nuc)
    E(ZPE)  - the the zero temperature vibrational energy from the frequency calculation
    E(vib)  - the the finite temperature correction to E(ZPE) due to population
              of excited vibrational states
    E(rot)  - is the rotational thermal energy
    E(trans)- is the translational thermal energy

Summary of contributions to the inner energy U:
Electronic energy                ...   -747.20071692 Eh
Zero point energy                ...      0.04517003 Eh      28.34 kcal/mol
Thermal vibrational correction   ...      0.01162143 Eh       7.29 kcal/mol
Thermal rotational correction    ...      0.00141627 Eh       0.89 kcal/mol
Thermal translational correction ...      0.00141627 Eh       0.89 kcal/mol
-----------------------------------------------------------------------
Total thermal energy                   -747.14109291 Eh


Summary of corrections to the electronic energy:
(perhaps to be used in another calculation)
Total thermal correction                  0.01445397 Eh       9.07 kcal/mol
Non-thermal (ZPE) correction              0.04517003 Eh      28.34 kcal/mol
-----------------------------------------------------------------------
Total correction                          0.05962401 Eh      37.41 kcal/mol


--------
ENTHALPY
--------

The enthalpy is H = U + kB*T
                kB is Boltzmann's constant
Total free energy                 ...   -747.14109291 Eh 
Thermal Enthalpy correction       ...      0.00094421 Eh       0.59 kcal/mol
-----------------------------------------------------------------------
Total Enthalpy                    ...   -747.14014870 Eh


Note: Only C1 symmetry has been detected, increase convergence thresholds 
      if your molecule has a higher symmetry. Symmetry factor of 1.0 is   
      used for the rotational entropy correction. 
 

Note: Rotational entropy computed according to Herzberg 
Infrared and Raman Spectra, Chapter V,1, Van Nostrand Reinhold, 1945 
Point Group:  C1, Symmetry Number:   1  
Rotational constants in cm-1:     0.021118     0.018822     0.018008 

Vibrational entropy computed according to the QRRHO of S. Grimme
Chem.Eur.J. 2012 18 9955


-------
ENTROPY
-------

The entropy contributions are T*S = T*(S(el)+S(vib)+S(rot)+S(trans))
     S(el)   - electronic entropy
     S(vib)  - vibrational entropy
     S(rot)  - rotational entropy
     S(trans)- translational entropy
The entropies will be listed as multiplied by the temperature to get
units of energy

Electronic entropy                ...      0.00065446 Eh      0.41 kcal/mol
Vibrational entropy               ...      0.02094269 Eh     13.14 kcal/mol
Rotational entropy                ...      0.01510380 Eh      9.48 kcal/mol
Translational entropy             ...      0.02065320 Eh     12.96 kcal/mol
-----------------------------------------------------------------------
Final entropy term                ...      0.05735415 Eh     35.99 kcal/mol

In case the symmetry of your molecule has not been determined correctly
or in case you have a reason to use a different symmetry number we print 
out the resulting rotational entropy values for sn=1,12 :
 --------------------------------------------------------
|  sn= 1 | S(rot)=       0.01510380 Eh      9.48 kcal/mol|
|  sn= 2 | S(rot)=       0.01444935 Eh      9.07 kcal/mol|
|  sn= 3 | S(rot)=       0.01406651 Eh      8.83 kcal/mol|
|  sn= 4 | S(rot)=       0.01379489 Eh      8.66 kcal/mol|
|  sn= 5 | S(rot)=       0.01358420 Eh      8.52 kcal/mol|
|  sn= 6 | S(rot)=       0.01341206 Eh      8.42 kcal/mol|
|  sn= 7 | S(rot)=       0.01326651 Eh      8.32 kcal/mol|
|  sn= 8 | S(rot)=       0.01314043 Eh      8.25 kcal/mol|
|  sn= 9 | S(rot)=       0.01302922 Eh      8.18 kcal/mol|
|  sn=10 | S(rot)=       0.01292975 Eh      8.11 kcal/mol|
|  sn=11 | S(rot)=       0.01283976 Eh      8.06 kcal/mol|
|  sn=12 | S(rot)=       0.01275760 Eh      8.01 kcal/mol|
 --------------------------------------------------------


-------------------
GIBBS FREE ENERGY
-------------------

The Gibbs free energy is G = H - T*S

Total enthalpy                    ...   -747.14014870 Eh 
Total entropy correction          ...     -0.05735415 Eh    -35.99 kcal/mol
-----------------------------------------------------------------------
Final Gibbs free energy         ...   -747.19750285 Eh

For completeness - the Gibbs free energy minus the electronic energy
G-E(el)                           ...      0.00321407 Eh      2.02 kcal/mol


Timings for individual modules:

Sum of individual times         ...     4921.938 sec (=  82.032 min)
GTO integral calculation        ...       22.485 sec (=   0.375 min)   0.5 %
SCF iterations                  ...     2147.641 sec (=  35.794 min)  43.6 %
SCF Gradient evaluation         ...      376.925 sec (=   6.282 min)   7.7 %
Geometry relaxation             ...        0.477 sec (=   0.008 min)   0.0 %
Analytical frequency calculation...     2374.410 sec (=  39.574 min)  48.2 %
                             ****ORCA TERMINATED NORMALLY****
TOTAL RUN TIME: 0 days 1 hours 22 minutes 4 seconds 184 msec
