
                                 *****************
                                 * O   R   C   A *
                                 *****************

                                            #,                                       
                                            ###                                      
                                            ####                                     
                                            #####                                    
                                            ######                                   
                                           ########,                                 
                                     ,,################,,,,,                         
                               ,,#################################,,                 
                          ,,##########################################,,             
                       ,#########################################, ''#####,          
                    ,#############################################,,   '####,        
                  ,##################################################,,,,####,       
                ,###########''''           ''''###############################       
              ,#####''   ,,,,##########,,,,          '''####'''          '####       
            ,##' ,,,,###########################,,,                        '##       
           ' ,,###''''                  '''############,,,                           
         ,,##''                                '''############,,,,        ,,,,,,###''
      ,#''                                            '''#######################'''  
     '                                                          ''''####''''         
             ,#######,   #######,   ,#######,      ##                                
            ,#'     '#,  ##    ##  ,#'     '#,    #''#        ######   ,####,        
            ##       ##  ##   ,#'  ##            #'  '#       #        #'  '#        
            ##       ##  #######   ##           ,######,      #####,   #    #        
            '#,     ,#'  ##    ##  '#,     ,#' ,#      #,         ##   #,  ,#        
             '#######'   ##     ##  '#######'  #'      '#     #####' # '####'        



                  #######################################################
                  #                        -***-                        #
                  #          Department of theory and spectroscopy      #
                  #    Directorship and core code : Frank Neese         #
                  #        Max Planck Institute fuer Kohlenforschung    #
                  #                Kaiser Wilhelm Platz 1               #
                  #                 D-45470 Muelheim/Ruhr               #
                  #                      Germany                        #
                  #                                                     #
                  #                  All rights reserved                #
                  #                        -***-                        #
                  #######################################################



                         Program Version 5.0.4 -  RELEASE  -

 With contributions from (in alphabetic order):
   Daniel Aravena         : Magnetic Suceptibility
   Michael Atanasov       : Ab Initio Ligand Field Theory (pilot matlab implementation)
   Alexander A. Auer      : GIAO ZORA, VPT2 properties, NMR spectrum
   Ute Becker             : Parallelization
   Giovanni Bistoni       : ED, misc. LED, open-shell LED, HFLD
   Martin Brehm           : Molecular dynamics
   Dmytro Bykov           : SCF Hessian
   Vijay G. Chilkuri      : MRCI spin determinant printing, contributions to CSF-ICE
   Dipayan Datta          : RHF DLPNO-CCSD density
   Achintya Kumar Dutta   : EOM-CC, STEOM-CC
   Dmitry Ganyushin       : Spin-Orbit,Spin-Spin,Magnetic field MRCI
   Miquel Garcia          : C-PCM and meta-GGA Hessian, CC/C-PCM, Gaussian charge scheme
   Yang Guo               : DLPNO-NEVPT2, F12-NEVPT2, CIM, IAO-localization
   Andreas Hansen         : Spin unrestricted coupled pair/coupled cluster methods
   Benjamin Helmich-Paris : MC-RPA, TRAH-SCF, COSX integrals
   Lee Huntington         : MR-EOM, pCC
   Robert Izsak           : Overlap fitted RIJCOSX, COSX-SCS-MP3, EOM
   Marcus Kettner         : VPT2
   Christian Kollmar      : KDIIS, OOCD, Brueckner-CCSD(T), CCSD density, CASPT2, CASPT2-K
   Simone Kossmann        : Meta GGA functionals, TD-DFT gradient, OOMP2, MP2 Hessian
   Martin Krupicka        : Initial AUTO-CI
   Lucas Lang             : DCDCAS
   Marvin Lechner         : AUTO-CI (C++ implementation), FIC-MRCC
   Dagmar Lenk            : GEPOL surface, SMD
   Dimitrios Liakos       : Extrapolation schemes; Compound Job, initial MDCI parallelization
   Dimitrios Manganas     : Further ROCIS development; embedding schemes
   Dimitrios Pantazis     : SARC Basis sets
   Anastasios Papadopoulos: AUTO-CI, single reference methods and gradients
   Taras Petrenko         : DFT Hessian,TD-DFT gradient, ASA, ECA, R-Raman, ABS, FL, XAS/XES, NRVS
   Peter Pinski           : DLPNO-MP2, DLPNO-MP2 Gradient
   Christoph Reimann      : Effective Core Potentials
   Marius Retegan         : Local ZFS, SOC
   Christoph Riplinger    : Optimizer, TS searches, QM/MM, DLPNO-CCSD(T), (RO)-DLPNO pert. Triples
   Tobias Risthaus        : Range-separated hybrids, TD-DFT gradient, RPA, STAB
   Michael Roemelt        : Original ROCIS implementation
   Masaaki Saitow         : Open-shell DLPNO-CCSD energy and density
   Barbara Sandhoefer     : DKH picture change effects
   Avijit Sen             : IP-ROCIS
   Kantharuban Sivalingam : CASSCF convergence, NEVPT2, FIC-MRCI
   Bernardo de Souza      : ESD, SOC TD-DFT
   Georgi Stoychev        : AutoAux, RI-MP2 NMR, DLPNO-MP2 response
   Willem Van den Heuvel  : Paramagnetic NMR
   Boris Wezisla          : Elementary symmetry handling
   Frank Wennmohs         : Technical directorship


 We gratefully acknowledge several colleagues who have allowed us to
 interface, adapt or use parts of their codes:
   Stefan Grimme, W. Hujo, H. Kruse, P. Pracht,  : VdW corrections, initial TS optimization,
                  C. Bannwarth, S. Ehlert          DFT functionals, gCP, sTDA/sTD-DF
   Ed Valeev, F. Pavosevic, A. Kumar             : LibInt (2-el integral package), F12 methods
   Garnet Chan, S. Sharma, J. Yang, R. Olivares  : DMRG
   Ulf Ekstrom                                   : XCFun DFT Library
   Mihaly Kallay                                 : mrcc  (arbitrary order and MRCC methods)
   Jiri Pittner, Ondrej Demel                    : Mk-CCSD
   Frank Weinhold                                : gennbo (NPA and NBO analysis)
   Christopher J. Cramer and Donald G. Truhlar   : smd solvation model
   Lars Goerigk                                  : TD-DFT with DH, B97 family of functionals
   V. Asgeirsson, H. Jonsson                     : NEB implementation
   FAccTs GmbH                                   : IRC, NEB, NEB-TS, DLPNO-Multilevel, CI-OPT
                                                   MM, QMMM, 2- and 3-layer-ONIOM, Crystal-QMMM,
                                                   LR-CPCM, SF, NACMEs, symmetry and pop. for TD-DFT,
                                                   nearIR, NL-DFT gradient (VV10), updates on ESD,
                                                   ML-optimized integration grids
   S Lehtola, MJT Oliveira, MAL Marques          : LibXC Library
   Liviu Ungur et al                             : ANISO software


 Your calculation uses the libint2 library for the computation of 2-el integrals
 For citations please refer to: http://libint.valeyev.net

 Your ORCA version has been built with support for libXC version: 5.1.0
 For citations please refer to: https://tddft.org/programs/libxc/

 This ORCA versions uses:
   CBLAS   interface :  Fast vector & matrix operations
   LAPACKE interface :  Fast linear algebra routines
   Shared memory     :  Shared parallel matrices


================================================================================

cite the ECPs for W  [Def2-ECP] as follows:
Ce-Yb(ecp-28): M. Dolg, H. Stoll, H.Preuss, J. Chem. Phys., 1989, 90, 1730-1734.
Y-Cd(ecp-28), Hf-Hg(ecp-46): D. Andrae,U. Haeussermann, M. Dolg, H. Stoll, H. Preuss, Theor. Chim. Acta, 1990, 77, 123-141.
In-Sb(ecp-28), Tl-Bi(ecp-46): B. Metz, H. Stoll, M. Dolg, J. Chem. Phys., 2000, 113, 2563-2569.
Te-Xe(ecp-28), Po-Rn(ecp-46): K. A. Peterson, D. Figgen, E. Goll, H. Stoll, M. Dolg, J. Chem. Phys., 2003, 119, 11113-11123.
Rb(ecp-28), Cs(ecp-46): T. Leininger, A. Nicklass, W. Kuechle, H. Stoll, M. Dolg, A. Bergner, Chem. Phys. Lett., 1996, 255, 274-280.
Sr(ecp-28), Ba(ecp-46): M. Kaupp, P. V. Schleyer, H. Stoll and H. Preuss, J. Chem. Phys., 1991, 94, 1360-1366.
La(ecp-46): M. Dolg, H. Stoll, A. Savin, H. Preuss, Theor. Chim. Acta, 1989, 75, 173-194.
Lu(ecp-28): X. Cao, M. Dolg, J. Chem. Phys., 2001, 115, 7348-7355.

ECP parameters for W  [Def2-ECP] have been obtained from:
TURBOMOLE (7.0.2)

----- Orbital basis set information -----
Your calculation utilizes the basis: def2-TZVPD
   F. Weigend and R. Ahlrichs, Phys. Chem. Chem. Phys. 7, 3297 (2005).
   D. Rappoport and F. Furche, J. Chem. Phys. 133 134105 (2010).

----- AuxJ basis set information -----
Your calculation utilizes the auxiliary basis: def2/J
   F. Weigend, Phys. Chem. Chem. Phys. 8, 1057 (2006).

================================================================================
                                        WARNINGS
                       Please study these warnings very carefully!
================================================================================


WARNING: Geometry Optimization
  ===> : Switching off AutoStart
         For restart on a previous wavefunction, please use MOREAD

INFO   : the flag for use of the SHARK integral package has been found!

================================================================================
                                       INPUT FILE
================================================================================
NAME = WCO6.inp
|  1> !B3LYP def2-TZVPD OPT FREQ TightSCF PAL8
|  2> 
|  3> %scf
|  4>   MaxIter 300
|  5> end
|  6> 
|  7> * xyz 0 1 
|  8> W         -1.37621        2.56722        0.10711
|  9> C          0.70839        2.53117        0.30993
| 10> C         -1.33834        4.66140        0.07376
| 11> C         -3.46098        2.60316       -0.09572
| 12> C         -1.41502        0.47296        0.14051
| 13> C         -1.57994        2.60535        2.19168
| 14> C         -1.17198        2.52910       -1.97739
| 15> O         -1.68985        2.62619        3.31419
| 16> O         -1.43573       -0.65466        0.15820
| 17> O         -1.31832        5.78914        0.05603
| 18> O         -1.06136        2.50831       -3.09969
| 19> O         -4.58356        2.62277       -0.20455
| 20> O          1.83095        2.51149        0.41866
| 21> **                         ****END OF INPUT****
================================================================================

                       *****************************
                       * Geometry Optimization Run *
                       *****************************

Geometry optimization settings:
Update method            Update   .... BFGS
Choice of coordinates    CoordSys .... Z-matrix Internals
Initial Hessian          InHess   .... Almoef's Model

Convergence Tolerances:
Energy Change            TolE     ....  5.0000e-06 Eh
Max. Gradient            TolMAXG  ....  3.0000e-04 Eh/bohr
RMS Gradient             TolRMSG  ....  1.0000e-04 Eh/bohr
Max. Displacement        TolMAXD  ....  4.0000e-03 bohr
RMS Displacement         TolRMSD  ....  2.0000e-03 bohr
Strict Convergence                ....  False
------------------------------------------------------------------------------
                        ORCA OPTIMIZATION COORDINATE SETUP
------------------------------------------------------------------------------

The optimization will be done in new redundant internal coordinates
Making redundant internal coordinates   ...  (new redundants) done
Evaluating the initial hessian          ...  (Almloef) done
Evaluating the coordinates              ...  done
Calculating the B-matrix                .... done
Calculating the G-matrix                .... done
Diagonalizing the G-matrix              .... done
The first mode is                       ....    3
The number of degrees of freedom        ....   33

    -----------------------------------------------------------------
                    Redundant Internal Coordinates


    -----------------------------------------------------------------
         Definition                    Initial Value    Approx d2E/dq
    -----------------------------------------------------------------
      1. B(C   1,W   0)                  2.0948         0.109219   
      2. B(C   2,W   0)                  2.0948         0.109206   
      3. B(C   3,W   0)                  2.0949         0.109152   
      4. B(C   4,W   0)                  2.0949         0.109166   
      5. B(C   5,W   0)                  2.0948         0.109181   
      6. B(C   6,W   0)                  2.0948         0.109190   
      7. B(O   7,C   5)                  1.1281         1.464762   
      8. B(O   8,C   4)                  1.1279         1.465417   
      9. B(O   9,C   2)                  1.1281         1.464835   
     10. B(O  10,C   6)                  1.1279         1.465518   
     11. B(O  11,C   3)                  1.1280         1.465070   
     12. B(O  12,C   1)                  1.1280         1.465222   
     13. A(C   4,W   0,C   5)           90.0303         0.265702   
     14. A(C   3,W   0,C   5)           89.9571         0.265697   
     15. A(C   2,W   0,C   3)           89.9598         0.265706   
     16. A(C   1,W   0,C   6)           89.9434         0.265725   
     17. A(C   2,W   0,C   6)           90.0337         0.265720   
     18. A(C   3,W   0,C   6)           90.0567         0.265700   
     19. A(C   4,W   0,C   6)           89.9702         0.265705   
     20. A(C   3,W   0,C   4)           90.0148         0.265691   
     21. A(C   1,W   0,C   2)           90.0433         0.265730   
     22. A(C   1,W   0,C   5)           90.0428         0.265721   
     23. A(C   1,W   0,C   4)           89.9821         0.265716   
     24. A(C   2,W   0,C   5)           89.9659         0.265716   
     25. L(W   0,C   1,O  12,C   6, 1) 179.9750         0.386553   
     26. L(W   0,C   1,O  12,C   6, 2) 180.0186         0.386553   
     27. L(W   0,C   2,O   9,C   3, 2) 179.9810         0.386527   
     28. L(W   0,C   2,O   9,C   3, 1) 179.9823         0.386527   
     29. L(W   0,C   3,O  11,C   5, 2) 179.9820         0.386504   
     30. L(W   0,C   3,O  11,C   5, 1) 179.9802         0.386504   
     31. L(W   0,C   4,O   8,C   6, 1) 179.9842         0.386529   
     32. L(W   0,C   4,O   8,C   6, 2) 179.9887         0.386529   
     33. L(W   0,C   5,O   7,C   3, 2) 180.0218         0.386508   
     34. L(W   0,C   5,O   7,C   3, 1) 179.9894         0.386508   
     35. L(W   0,C   6,O  10,C   1, 2) 179.9818         0.386548   
     36. L(W   0,C   6,O  10,C   1, 1) 179.9663         0.386548   
    -----------------------------------------------------------------

Number of atoms                         .... 13
Number of degrees of freedom            .... 36

         *************************************************************
         *                GEOMETRY OPTIMIZATION CYCLE   1            *
         *************************************************************
---------------------------------
CARTESIAN COORDINATES (ANGSTROEM)
---------------------------------
  W     -1.376210    2.567220    0.107110
  C      0.708390    2.531170    0.309930
  C     -1.338340    4.661400    0.073760
  C     -3.460980    2.603160   -0.095720
  C     -1.415020    0.472960    0.140510
  C     -1.579940    2.605350    2.191680
  C     -1.171980    2.529100   -1.977390
  O     -1.689850    2.626190    3.314190
  O     -1.435730   -0.654660    0.158200
  O     -1.318320    5.789140    0.056030
  O     -1.061360    2.508310   -3.099690
  O     -4.583560    2.622770   -0.204550
  O      1.830950    2.511490    0.418660

----------------------------
CARTESIAN COORDINATES (A.U.)
----------------------------
  NO LB      ZA    FRAG     MASS         X           Y           Z
   0 W    14.0000*   0   183.850   -2.600660    4.851343    0.202409
   1 C     6.0000    0    12.011    1.338663    4.783218    0.585683
   2 C     6.0000    0    12.011   -2.529096    8.808769    0.139386
   3 C     6.0000    0    12.011   -6.540304    4.919259   -0.180885
   4 C     6.0000    0    12.011   -2.674000    0.893765    0.265525
   5 C     6.0000    0    12.011   -2.985654    4.923398    4.141675
   6 C     6.0000    0    12.011   -2.214721    4.779306   -3.736726
   7 O     8.0000    0    15.999   -3.193354    4.962780    6.262911
   8 O     8.0000    0    15.999   -2.713137   -1.237128    0.298955
   9 O     8.0000    0    15.999   -2.491264   10.939889    0.105881
  10 O     8.0000    0    15.999   -2.005680    4.740019   -5.857565
  11 O     8.0000    0    15.999   -8.661673    4.956317   -0.386543
  12 O     8.0000    0    15.999    3.459994    4.746028    0.791153
* core charge reduced due to ECP

--------------------------------
INTERNAL COORDINATES (ANGSTROEM)
--------------------------------
 W      0   0   0     0.000000000000     0.00000000     0.00000000
 C      1   0   0     2.094753616753     0.00000000     0.00000000
 C      1   2   0     2.094787872745    90.04329025     0.00000000
 C      1   2   3     2.094921870954   179.99690674   182.29116734
 C      1   2   3     2.094885849802    89.98212640   180.00380390
 C      1   2   3     2.094848895434    90.04279574   270.03411615
 C      1   2   3     2.094827744064    89.94341391    90.03361590
 O      6   1   2     1.128070571285   179.98128769   124.50532445
 O      5   1   2     1.127948892725   179.98232997   296.87930288
 O      3   1   2     1.128057029099   179.97774731   217.10318201
 O      7   1   2     1.127930094687   179.96392626    20.91481758
 O      4   1   2     1.128013465079   179.97643751   120.50657057
 O      2   1   3     1.127985136826   179.97178934   242.17983125

---------------------------
INTERNAL COORDINATES (A.U.)
---------------------------
 W      0   0   0     0.000000000000     0.00000000     0.00000000
 C      1   0   0     3.958510653704     0.00000000     0.00000000
 C      1   2   0     3.958575388148    90.04329025     0.00000000
 C      1   2   3     3.958828608064   179.99690674   182.29116734
 C      1   2   3     3.958760537952    89.98212640   180.00380390
 C      1   2   3     3.958690704317    90.04279574   270.03411615
 C      1   2   3     3.958650734021    89.94341391    90.03361590
 O      6   1   2     2.131744439465   179.98128769   124.50532445
 O      5   1   2     2.131514500310   179.98232997   296.87930288
 O      3   1   2     2.131718848442   179.97774731   217.10318201
 O      7   1   2     2.131478977166   179.96392626    20.91481758
 O      4   1   2     2.131636524375   179.97643751   120.50657057
 O      2   1   3     2.131582991735   179.97178934   242.17983125

---------------------
BASIS SET INFORMATION
---------------------
There are 3 groups of distinct atoms

 Group   1 Type W   : 8s8p6d1f contracted to 6s5p3d1f pattern {311111/41111/411/1}
 Group   2 Type C   : 12s6p3d1f contracted to 6s3p3d1f pattern {621111/411/111/1}
 Group   3 Type O   : 12s7p3d1f contracted to 6s4p3d1f pattern {621111/4111/111/1}

Atom   0W    basis set group =>   1
Atom   1C    basis set group =>   2
Atom   2C    basis set group =>   2
Atom   3C    basis set group =>   2
Atom   4C    basis set group =>   2
Atom   5C    basis set group =>   2
Atom   6C    basis set group =>   2
Atom   7O    basis set group =>   3
Atom   8O    basis set group =>   3
Atom   9O    basis set group =>   3
Atom  10O    basis set group =>   3
Atom  11O    basis set group =>   3
Atom  12O    basis set group =>   3
---------------------------------
AUXILIARY/J BASIS SET INFORMATION
---------------------------------
There are 3 groups of distinct atoms

 Group   1 Type W   : 11s5p5d3f3g contracted to 8s5p5d2f3g pattern {41111111/11111/11111/21/111}
 Group   2 Type C   : 12s5p4d2f1g contracted to 6s4p3d1f1g pattern {711111/2111/211/2/1}
 Group   3 Type O   : 12s5p4d2f1g contracted to 6s4p3d1f1g pattern {711111/2111/211/2/1}

Atom   0W    basis set group =>   1
Atom   1C    basis set group =>   2
Atom   2C    basis set group =>   2
Atom   3C    basis set group =>   2
Atom   4C    basis set group =>   2
Atom   5C    basis set group =>   2
Atom   6C    basis set group =>   2
Atom   7O    basis set group =>   3
Atom   8O    basis set group =>   3
Atom   9O    basis set group =>   3
Atom  10O    basis set group =>   3
Atom  11O    basis set group =>   3
Atom  12O    basis set group =>   3
-------------------------
ECP PARAMETER INFORMATION
-------------------------

 Group 1, Type W  ECP Def2-ECP (replacing 60 core electrons, lmax=3)

Atom   0W    ECP group =>   1



           ************************************************************
           *        Program running with 8 parallel MPI-processes     *
           *              working on a common directory               *
           ************************************************************
------------------------------------------------------------------------------
                           ORCA GTO INTEGRAL CALCULATION
                           -- RI-GTO INTEGRALS CHOSEN --
------------------------------------------------------------------------------
------------------------------------------------------------------------------
                   ___                                                        
                  /   \      - P O W E R E D   B Y -                         
                 /     \                                                     
                 |  |  |   _    _      __       _____    __    __             
                 |  |  |  | |  | |    /  \     |  _  \  |  |  /  |          
                  \  \/   | |  | |   /    \    | | | |  |  | /  /          
                 / \  \   | |__| |  /  /\  \   | |_| |  |  |/  /          
                |  |  |   |  __  | /  /__\  \  |    /   |      \           
                |  |  |   | |  | | |   __   |  |    \   |  |\   \          
                \     /   | |  | | |  |  |  |  | |\  \  |  | \   \       
                 \___/    |_|  |_| |__|  |__|  |_| \__\ |__|  \__/        
                                                                              
                      - O R C A' S   B I G   F R I E N D -                    
                                      &                                       
                       - I N T E G R A L  F E E D E R -                       
                                                                              
 v1 FN, 2020, v2 2021                                                         
------------------------------------------------------------------------------


Reading SHARK input file WCO6.SHARKINP.tmp ... ok
----------------------
SHARK INTEGRAL PACKAGE
----------------------

Number of atoms                             ...     13
Number of basis functions                   ...    505
Number of shells                            ...    177
Maximum angular momentum                    ...      3
Integral batch strategy                     ... SHARK/LIBINT Hybrid
RI-J (if used) integral strategy            ... SPLIT-RIJ (Revised 2003 algorithm where possible)
Printlevel                                  ...      1
Contraction scheme used                     ... SEGMENTED contraction
Coulomb Range Separation                    ... NOT USED
Exchange Range Separation                   ... NOT USED
Finite Nucleus Model                        ... NOT USED
Auxiliary Coulomb fitting basis             ... AVAILABLE
   # of basis functions in Aux-J            ...    677
   # of shells in Aux-J                     ...    203
   Maximum angular momentum in Aux-J        ...      4
Auxiliary J/K fitting basis                 ... NOT available
Auxiliary Correlation fitting basis         ... NOT available
Auxiliary 'external' fitting basis          ... NOT available
Integral threshold                          ...     2.500000e-11
Primitive cut-off                           ...     2.500000e-12
Primitive pair pre-selection threshold      ...     2.500000e-12

Calculating pre-screening integrals         ... done (  0.1 sec) Dimension = 177
Organizing shell pair data                  ... done (  0.2 sec)
Shell pair information
Total number of shell pairs                 ...     15753
Shell pairs after pre-screening             ...     13653
Total number of primitive shell pairs       ...     43350
Primitive shell pairs kept                  ...     27528
          la=0 lb=0:   2457 shell pairs
          la=1 lb=0:   3300 shell pairs
          la=1 lb=1:   1092 shell pairs
          la=2 lb=0:   2598 shell pairs
          la=2 lb=1:   1665 shell pairs
          la=2 lb=2:    693 shell pairs
          la=3 lb=0:    762 shell pairs
          la=3 lb=1:    563 shell pairs
          la=3 lb=2:    453 shell pairs
          la=3 lb=3:     70 shell pairs

Calculating one electron integrals          ... done (  0.0 sec)
Calculating ECP integrals                   ... done (  1.3 sec)
Calculating RI/J V-Matrix + Cholesky decomp.... done (  0.1 sec)
Calculating Nuclear repulsion               ... done (  0.0 sec) ENN=    755.755504036229 Eh

SHARK setup successfully completed in   2.1 seconds

Maximum memory used throughout the entire GTOINT-calculation: 25.7 MB


           ************************************************************
           *        Program running with 8 parallel MPI-processes     *
           *              working on a common directory               *
           ************************************************************
-------------------------------------------------------------------------------
                                 ORCA SCF
-------------------------------------------------------------------------------

------------
SCF SETTINGS
------------
Hamiltonian:
 Density Functional     Method          .... DFT(GTOs)
 Exchange Functional    Exchange        .... B88
   X-Alpha parameter    XAlpha          ....  0.666667
   Becke's b parameter  XBeta           ....  0.004200
 Correlation Functional Correlation     .... LYP
 LDA part of GGA corr.  LDAOpt          .... VWN-5
 Gradients option       PostSCFGGA      .... off
 Hybrid DFT is turned on
   Fraction HF Exchange ScalHFX         ....  0.200000
   Scaling of DF-GGA-X  ScalDFX         ....  0.720000
   Scaling of DF-GGA-C  ScalDFC         ....  0.810000
   Scaling of DF-LDA-C  ScalLDAC        ....  1.000000
   Perturbative correction              ....  0.000000
   Density functional embedding theory  .... OFF
   NL short-range parameter             ....  4.800000
 RI-approximation to the Coulomb term is turned on
   Number of AuxJ basis functions       .... 677
   RIJ-COSX (HFX calculated with COS-X)).... on


General Settings:
 Integral files         IntName         .... WCO6
 Hartree-Fock type      HFTyp           .... RHF
 Total Charge           Charge          ....    0
 Multiplicity           Mult            ....    1
 Number of Electrons    NEL             ....   98
 Basis Dimension        Dim             ....  505
 Nuclear Repulsion      ENuc            ....    755.7555040362 Eh

Convergence Acceleration:
 DIIS                   CNVDIIS         .... on
   Start iteration      DIISMaxIt       ....    12
   Startup error        DIISStart       ....  0.200000
   # of expansion vecs  DIISMaxEq       ....     5
   Bias factor          DIISBfac        ....   1.050
   Max. coefficient     DIISMaxC        ....  10.000
 Trust-Rad. Augm. Hess. CNVTRAH         .... auto
   Auto Start mean grad. ratio tolernc. ....  1.125000
   Auto Start start iteration           ....    20
   Auto Start num. interpolation iter.  ....    10
   Max. Number of Micro iterations      ....    16
   Max. Number of Macro iterations      .... Maxiter - #DIIS iter
   Number of Davidson start vectors     ....     2
   Converg. threshold I  (grad. norm)   ....   1.000e-05
   Converg. threshold II (energy diff.) ....   1.000e-08
   Grad. Scal. Fac. for Micro threshold ....   0.100
   Minimum threshold for Micro iter.    ....   0.010
   NR start threshold (gradient norm)   ....   0.001
   Initial trust radius                 ....   0.400
   Minimum AH scaling param. (alpha)    ....   1.000
   Maximum AH scaling param. (alpha)    .... 1000.000
   Orbital update algorithm             .... Taylor
   White noise on init. David. guess    .... on
   Maximum white noise                  ....   0.010
   Quad. conv. algorithm                .... NR
 SOSCF                  CNVSOSCF        .... off
 Level Shifting         CNVShift        .... on
   Level shift para.    LevelShift      ....    0.2500
   Turn off err/grad.   ShiftErr        ....    0.0010
 Zerner damping         CNVZerner       .... off
 Static damping         CNVDamp         .... on
   Fraction old density DampFac         ....    0.7000
   Max. Damping (<1)    DampMax         ....    0.9800
   Min. Damping (>=0)   DampMin         ....    0.0000
   Turn off err/grad.   DampErr         ....    0.1000
 Fernandez-Rico         CNVRico         .... off

SCF Procedure:
 Maximum # iterations   MaxIter         ....   300
 SCF integral mode      SCFMode         .... Direct
   Integral package                     .... SHARK and LIBINT hybrid scheme
 Reset frequency        DirectResetFreq ....    20
 Integral Threshold     Thresh          ....  2.500e-11 Eh
 Primitive CutOff       TCut            ....  2.500e-12 Eh

Convergence Tolerance:
 Convergence Check Mode ConvCheckMode   .... Total+1el-Energy
 Convergence forced     ConvForced      .... 0
 Energy Change          TolE            ....  1.000e-08 Eh
 1-El. energy change                    ....  1.000e-05 Eh
 DIIS Error             TolErr          ....  5.000e-07


Diagonalization of the overlap matrix:
Smallest eigenvalue                        ... 4.100e-06
Time for diagonalization                   ...    0.082 sec
Threshold for overlap eigenvalues          ... 1.000e-08
Number of eigenvalues below threshold      ... 0
Time for construction of square roots      ...    0.118 sec
Total time needed                          ...    0.202 sec

Time for model grid setup =    0.159 sec

------------------------------
INITIAL GUESS: MODEL POTENTIAL
------------------------------
Loading Hartree-Fock densities                     ... done
  calling C:\orca_5_0_4\orca WCO6_atom74.inp > WCO6_atom74.out in order to generate an atomic fitting density for atom 0 (W  with ECP) on-the-fly... 
    atom 0 (W ), assumed electronic state with S=5: 1s2 2s2 2p6 3s2 3p6 4s2 3d10 4p6 5s2 4d10 5p6 6s2 4f14 5d4           ... done
Calculating cut-offs                               ... done
Initializing the effective Hamiltonian             ... done
Setting up the integral package (SHARK)            ... done
Starting the Coulomb interaction                   ... done (   0.2 sec)
Reading the grid                                   ... done
Mapping shells                                     ... done
Starting the XC term evaluation                    ... done (   0.2 sec)
  promolecular density results
     # of electrons  =    158.003070146
     EX              =   -406.132883752
     EC              =     -6.997092245
     EX+EC           =   -413.129975996
Transforming the Hamiltonian                       ... done (   0.1 sec)
Diagonalizing the Hamiltonian                      ... done (   0.1 sec)
Back transforming the eigenvectors                 ... done (   0.0 sec)
Now organizing SCF variables                       ... done
                      ------------------
                      INITIAL GUESS DONE (   5.2 sec)
                      ------------------
-------------------
DFT GRID GENERATION
-------------------

General Integration Accuracy     IntAcc      ... 4.388
Radial Grid Type                 RadialGrid  ... OptM3 with GC (2021)
Angular Grid (max. ang.)         AngularGrid ... 4 (Lebedev-302)
Angular grid pruning method      GridPruning ... 4 (adaptive)
Weight generation scheme         WeightScheme... Becke
Basis function cutoff            BFCut       ... 1.0000e-11
Integration weight cutoff        WCut        ... 1.0000e-14
Angular grids for H and He will be reduced by one unit
Partially contracted basis set               ... off
Rotationally invariant grid construction     ... off

Total number of grid points                  ...    87691
Total number of batches                      ...     1378
Average number of points per batch           ...       63
Average number of grid points per atom       ...     6745
Time for grid setup =    0.651 sec

--------------------
COSX GRID GENERATION
--------------------

GRIDX 1
-------
General Integration Accuracy     IntAcc      ... 3.816
Radial Grid Type                 RadialGrid  ... OptM3 with GC (2021)
Angular Grid (max. ang.)         AngularGrid ... 1 (Lebedev-50)
Angular grid pruning method      GridPruning ... 4 (adaptive)
Weight generation scheme         WeightScheme... Becke
Basis function cutoff            BFCut       ... 1.0000e-11
Integration weight cutoff        WCut        ... 1.0000e-14
Angular grids for H and He will be reduced by one unit
Partially contracted basis set               ... on
Rotationally invariant grid construction     ... off

Total number of grid points                  ...    10828
Total number of batches                      ...      175
Average number of points per batch           ...       61
Average number of grid points per atom       ...      833
UseSFitting                                  ... on

GRIDX 2
-------
General Integration Accuracy     IntAcc      ... 4.020
Radial Grid Type                 RadialGrid  ... OptM3 with GC (2021)
Angular Grid (max. ang.)         AngularGrid ... 2 (Lebedev-110)
Angular grid pruning method      GridPruning ... 4 (adaptive)
Weight generation scheme         WeightScheme... Becke
Basis function cutoff            BFCut       ... 1.0000e-11
Integration weight cutoff        WCut        ... 1.0000e-14
Angular grids for H and He will be reduced by one unit
Partially contracted basis set               ... on
Rotationally invariant grid construction     ... off

Total number of grid points                  ...    29875
Total number of batches                      ...      472
Average number of points per batch           ...       63
Average number of grid points per atom       ...     2298
UseSFitting                                  ... on

GRIDX 3
-------
General Integration Accuracy     IntAcc      ... 4.338
Radial Grid Type                 RadialGrid  ... OptM3 with GC (2021)
Angular Grid (max. ang.)         AngularGrid ... 3 (Lebedev-194)
Angular grid pruning method      GridPruning ... 4 (adaptive)
Weight generation scheme         WeightScheme... Becke
Basis function cutoff            BFCut       ... 1.0000e-11
Integration weight cutoff        WCut        ... 1.0000e-14
Angular grids for H and He will be reduced by one unit
Partially contracted basis set               ... on
Rotationally invariant grid construction     ... off

Total number of grid points                  ...    63149
Total number of batches                      ...      992
Average number of points per batch           ...       63
Average number of grid points per atom       ...     4858
UseSFitting                                  ... on

Time for X-Grid setup             =    1.705 sec

--------------
SCF ITERATIONS
--------------
ITER       Energy         Delta-E        Max-DP      RMS-DP      [F,P]     Damp
               ***  Starting incremental Fock matrix formation  ***
  0   -746.7605003348   0.000000000000 0.36434738  0.00175786  0.3784730 0.7000
  1   -746.9692809741  -0.208780639295 0.22832256  0.00117358  0.2504588 0.7000
                               ***Turning on DIIS***
  2   -747.0334587884  -0.064177814314 0.13178393  0.00075780  0.1651475 0.7000
  3   -747.0731398448  -0.039681056433 0.10646203  0.00052719  0.1123201 0.7000
  4   -747.1045099327  -0.031370087859 0.23099832  0.00120256  0.0792792 0.0000
  5   -747.1752120295  -0.070702096839 0.01329551  0.00010817  0.0084127 0.0000
  6   -747.1755979805  -0.000385950979 0.00553154  0.00004246  0.0032744 0.0000
  7   -747.1756632619  -0.000065281402 0.00116012  0.00001281  0.0016380 0.0000
  8   -747.1756793845  -0.000016122626 0.00082410  0.00000554  0.0002395 0.0000
               *** Restarting incremental Fock matrix formation ***
                                   *** Resetting DIIS ***
  9   -747.1757359207  -0.000056536193 0.00372495  0.00004554  0.0001927 0.0000
 10   -747.1757342517   0.000001668968 0.00039759  0.00000346  0.0006505 0.0000
 11   -747.1757361452  -0.000001893463 0.00010936  0.00000109  0.0000475 0.0000
 12   -747.1757361754  -0.000000030188 0.00042895  0.00000528  0.0000216 0.0000
 13   -747.1757361472   0.000000028203 0.00054929  0.00000559  0.0000133 0.0000
                            ***DIIS convergence achieved***

               *****************************************************
               *                     SUCCESS                       *
               *           SCF CONVERGED AFTER  14 CYCLES          *
               *****************************************************

Old exchange energy                            =    -17.392834603 Eh
New exchange energy                            =    -17.392817938 Eh
Exchange energy change after final integration =      0.000016665 Eh
Total energy after final integration           =   -747.175719491 Eh
Final COS-X integration done in                =    11.131 sec

----------------
TOTAL SCF ENERGY
----------------

Total Energy       :         -747.17571949 Eh          -20331.68497 eV

Components:
Nuclear Repulsion  :          755.75550404 Eh           20565.15278 eV
Electronic Energy  :        -1502.93122353 Eh          -40896.83775 eV
One Electron Energy:        -2543.56225177 Eh          -69213.84763 eV
Two Electron Energy:         1040.63102824 Eh           28317.00989 eV
Max COSX asymmetry :            0.00000121 Eh               0.00003 eV

Virial components:
Potential Energy   :        -1447.87180120 Eh          -39398.59470 eV
Kinetic Energy     :          700.69608171 Eh           19066.90973 eV
Virial Ratio       :            2.06633352


DFT components:
N(Alpha)           :       48.999986789030 electrons
N(Beta)            :       48.999986789030 electrons
N(Total)           :       97.999973578061 electrons
E(X)               :      -69.608999526048 Eh       
E(C)               :       -4.049605843468 Eh       
E(XC)              :      -73.658605369516 Eh       
DFET-embed. en.    :        0.000000000000 Eh       

---------------
SCF CONVERGENCE
---------------

  Last Energy change         ...   -8.8864e-09  Tolerance :   1.0000e-08
  Last MAX-Density change    ...    0.0000e+00  Tolerance :   1.0000e-07
  Last RMS-Density change    ...    0.0000e+00  Tolerance :   5.0000e-09
  Last DIIS Error            ...    6.0803e-07  Tolerance :   5.0000e-07

             **** THE GBW FILE WAS UPDATED (WCO6.gbw) ****
             **** DENSITY WCO6.scfp WAS UPDATED ****
             **** ENERGY FILE WAS UPDATED (WCO6.en.tmp) ****
             **** THE GBW FILE WAS UPDATED (WCO6.gbw) ****
             **** DENSITY WCO6.scfp WAS UPDATED ****
----------------
ORBITAL ENERGIES
----------------

  NO   OCC          E(Eh)            E(eV) 
   0   2.0000     -19.224394      -523.1224 
   1   2.0000     -19.224388      -523.1222 
   2   2.0000     -19.224384      -523.1221 
   3   2.0000     -19.224366      -523.1216 
   4   2.0000     -19.224363      -523.1215 
   5   2.0000     -19.224361      -523.1215 
   6   2.0000     -10.301822      -280.3268 
   7   2.0000     -10.301816      -280.3267 
   8   2.0000     -10.301813      -280.3266 
   9   2.0000     -10.301808      -280.3264 
  10   2.0000     -10.301798      -280.3262 
  11   2.0000     -10.301791      -280.3260 
  12   2.0000      -2.958554       -80.5063 
  13   2.0000      -1.608162       -43.7603 
  14   2.0000      -1.608128       -43.7594 
  15   2.0000      -1.608118       -43.7591 
  16   2.0000      -1.165600       -31.7176 
  17   2.0000      -1.165035       -31.7022 
  18   2.0000      -1.165023       -31.7019 
  19   2.0000      -1.165018       -31.7017 
  20   2.0000      -1.164887       -31.6982 
  21   2.0000      -1.164876       -31.6979 
  22   2.0000      -0.615318       -16.7437 
  23   2.0000      -0.584340       -15.9007 
  24   2.0000      -0.584338       -15.9006 
  25   2.0000      -0.578953       -15.7541 
  26   2.0000      -0.578927       -15.7534 
  27   2.0000      -0.578920       -15.7532 
  28   2.0000      -0.518348       -14.1050 
  29   2.0000      -0.493484       -13.4284 
  30   2.0000      -0.493463       -13.4278 
  31   2.0000      -0.493460       -13.4277 
  32   2.0000      -0.486966       -13.2510 
  33   2.0000      -0.486930       -13.2500 
  34   2.0000      -0.486921       -13.2498 
  35   2.0000      -0.483464       -13.1557 
  36   2.0000      -0.483464       -13.1557 
  37   2.0000      -0.480211       -13.0672 
  38   2.0000      -0.480205       -13.0670 
  39   2.0000      -0.480180       -13.0664 
  40   2.0000      -0.475510       -12.9393 
  41   2.0000      -0.475509       -12.9393 
  42   2.0000      -0.475508       -12.9392 
  43   2.0000      -0.426715       -11.6115 
  44   2.0000      -0.426625       -11.6090 
  45   2.0000      -0.426600       -11.6084 
  46   2.0000      -0.246439        -6.7059 
  47   2.0000      -0.246379        -6.7043 
  48   2.0000      -0.246373        -6.7042 
  49   0.0000      -0.072650        -1.9769 
  50   0.0000      -0.072604        -1.9756 
  51   0.0000      -0.072589        -1.9753 
  52   0.0000      -0.047872        -1.3027 
  53   0.0000      -0.047847        -1.3020 
  54   0.0000      -0.047744        -1.2992 
  55   0.0000      -0.005450        -0.1483 
  56   0.0000      -0.002631        -0.0716 
  57   0.0000      -0.002627        -0.0715 
  58   0.0000      -0.002626        -0.0715 
  59   0.0000       0.018381         0.5002 
  60   0.0000       0.018399         0.5007 
  61   0.0000       0.018404         0.5008 
  62   0.0000       0.034846         0.9482 
  63   0.0000       0.034848         0.9483 
  64   0.0000       0.037163         1.0113 
  65   0.0000       0.037166         1.0114 
  66   0.0000       0.037170         1.0114 
  67   0.0000       0.059128         1.6089 
  68   0.0000       0.059135         1.6091 
  69   0.0000       0.059137         1.6092 
  70   0.0000       0.076735         2.0881 
  71   0.0000       0.076737         2.0881 
  72   0.0000       0.076750         2.0885 
  73   0.0000       0.082242         2.2379 
  74   0.0000       0.085481         2.3261 
  75   0.0000       0.085484         2.3261 
  76   0.0000       0.091525         2.4905 
  77   0.0000       0.091532         2.4907 
  78   0.0000       0.091567         2.4917 
  79   0.0000       0.125355         3.4111 
  80   0.0000       0.130158         3.5418 
  81   0.0000       0.130159         3.5418 
  82   0.0000       0.130160         3.5418 
  83   0.0000       0.133846         3.6421 
  84   0.0000       0.133909         3.6439 
  85   0.0000       0.133932         3.6445 
  86   0.0000       0.139992         3.8094 
  87   0.0000       0.139996         3.8095 
  88   0.0000       0.170382         4.6363 
  89   0.0000       0.170407         4.6370 
  90   0.0000       0.170427         4.6376 
  91   0.0000       0.183598         4.9960 
  92   0.0000       0.208108         5.6629 
  93   0.0000       0.208116         5.6631 
  94   0.0000       0.208123         5.6633 
  95   0.0000       0.221128         6.0172 
  96   0.0000       0.221139         6.0175 
  97   0.0000       0.237497         6.4626 
  98   0.0000       0.237532         6.4636 
  99   0.0000       0.237545         6.4639 
 100   0.0000       0.239317         6.5121 
 101   0.0000       0.239326         6.5124 
 102   0.0000       0.239376         6.5138 
 103   0.0000       0.247169         6.7258 
 104   0.0000       0.268602         7.3090 
 105   0.0000       0.268747         7.3130 
 106   0.0000       0.268771         7.3136 
 107   0.0000       0.281231         7.6527 
 108   0.0000       0.281249         7.6532 
 109   0.0000       0.295931         8.0527 
 110   0.0000       0.295949         8.0532 
 111   0.0000       0.296002         8.0546 
 112   0.0000       0.299318         8.1449 
 113   0.0000       0.308436         8.3930 
 114   0.0000       0.308454         8.3935 
 115   0.0000       0.339603         9.2411 
 116   0.0000       0.339740         9.2448 
 117   0.0000       0.339772         9.2457 
 118   0.0000       0.341704         9.2982 
 119   0.0000       0.341745         9.2993 
 120   0.0000       0.341890         9.3033 
 121   0.0000       0.343706         9.3527 
 122   0.0000       0.343721         9.3531 
 123   0.0000       0.343724         9.3532 
 124   0.0000       0.347214         9.4482 
 125   0.0000       0.347227         9.4485 
 126   0.0000       0.377667        10.2769 
 127   0.0000       0.405613        11.0373 
 128   0.0000       0.405700        11.0397 
 129   0.0000       0.406161        11.0522 
 130   0.0000       0.423753        11.5309 
 131   0.0000       0.437292        11.8993 
 132   0.0000       0.437303        11.8996 
 133   0.0000       0.437328        11.9003 
 134   0.0000       0.453277        12.3343 
 135   0.0000       0.453293        12.3347 
 136   0.0000       0.453369        12.3368 
 137   0.0000       0.482055        13.1174 
 138   0.0000       0.485920        13.2226 
 139   0.0000       0.486203        13.2302 
 140   0.0000       0.486273        13.2322 
 141   0.0000       0.486304        13.2330 
 142   0.0000       0.502662        13.6781 
 143   0.0000       0.502739        13.6802 
 144   0.0000       0.502986        13.6869 
 145   0.0000       0.513775        13.9805 
 146   0.0000       0.513807        13.9814 
 147   0.0000       0.513884        13.9835 
 148   0.0000       0.538583        14.6556 
 149   0.0000       0.538789        14.6612 
 150   0.0000       0.538884        14.6638 
 151   0.0000       0.549640        14.9565 
 152   0.0000       0.549653        14.9568 
 153   0.0000       0.557565        15.1721 
 154   0.0000       0.557682        15.1753 
 155   0.0000       0.557906        15.1814 
 156   0.0000       0.566557        15.4168 
 157   0.0000       0.566586        15.4176 
 158   0.0000       0.566610        15.4182 
 159   0.0000       0.567103        15.4317 
 160   0.0000       0.567125        15.4322 
 161   0.0000       0.567161        15.4332 
 162   0.0000       0.567812        15.4510 
 163   0.0000       0.567820        15.4512 
 164   0.0000       0.576509        15.6876 
 165   0.0000       0.646614        17.5953 
 166   0.0000       0.646652        17.5963 
 167   0.0000       0.667390        18.1606 
 168   0.0000       0.667415        18.1613 
 169   0.0000       0.667476        18.1630 
 170   0.0000       0.671081        18.2610 
 171   0.0000       0.671128        18.2623 
 172   0.0000       0.674942        18.3661 
 173   0.0000       0.675038        18.3687 
 174   0.0000       0.675061        18.3693 
 175   0.0000       0.679894        18.5009 
 176   0.0000       0.680032        18.5046 
 177   0.0000       0.680071        18.5057 
 178   0.0000       0.696080        18.9413 
 179   0.0000       0.696091        18.9416 
 180   0.0000       0.705726        19.2038 
 181   0.0000       0.706245        19.2179 
 182   0.0000       0.706383        19.2217 
 183   0.0000       0.727418        19.7940 
 184   0.0000       0.741347        20.1731 
 185   0.0000       0.741414        20.1749 
 186   0.0000       0.741454        20.1760 
 187   0.0000       0.755235        20.5510 
 188   0.0000       0.779632        21.2149 
 189   0.0000       0.779657        21.2155 
 190   0.0000       0.779731        21.2176 
 191   0.0000       0.780940        21.2505 
 192   0.0000       0.780958        21.2510 
 193   0.0000       0.825574        22.4650 
 194   0.0000       0.825587        22.4654 
 195   0.0000       0.838483        22.8163 
 196   0.0000       0.845520        23.0078 
 197   0.0000       0.845534        23.0082 
 198   0.0000       0.853353        23.2209 
 199   0.0000       0.853442        23.2233 
 200   0.0000       0.853459        23.2238 
 201   0.0000       0.874789        23.8042 
 202   0.0000       0.874823        23.8051 
 203   0.0000       0.874992        23.8097 
 204   0.0000       0.876333        23.8462 
 205   0.0000       0.876397        23.8480 
 206   0.0000       0.876680        23.8557 
 207   0.0000       0.883753        24.0481 
 208   0.0000       0.900761        24.5110 
 209   0.0000       0.914837        24.8940 
 210   0.0000       0.914857        24.8945 
 211   0.0000       0.914880        24.8951 
 212   0.0000       0.923090        25.1186 
 213   0.0000       0.935292        25.4506 
 214   0.0000       0.935337        25.4518 
 215   0.0000       0.935478        25.4556 
 216   0.0000       0.962787        26.1988 
 217   0.0000       0.962819        26.1996 
 218   0.0000       0.962840        26.2002 
 219   0.0000       0.982224        26.7277 
 220   0.0000       0.982307        26.7299 
 221   0.0000       0.982329        26.7305 
 222   0.0000       1.028803        27.9952 
 223   0.0000       1.028815        27.9955 
 224   0.0000       1.028996        28.0004 
 225   0.0000       1.076564        29.2948 
 226   0.0000       1.076713        29.2989 
 227   0.0000       1.122855        30.5544 
 228   0.0000       1.122884        30.5552 
 229   0.0000       1.122890        30.5554 
 230   0.0000       1.142057        31.0770 
 231   0.0000       1.143791        31.1241 
 232   0.0000       1.143916        31.1275 
 233   0.0000       1.144440        31.1418 
 234   0.0000       1.170914        31.8622 
 235   0.0000       1.171671        31.8828 
 236   0.0000       1.171818        31.8868 
 237   0.0000       1.238106        33.6906 
 238   0.0000       1.238130        33.6912 
 239   0.0000       1.238199        33.6931 
 240   0.0000       1.291712        35.1493 
 241   0.0000       1.291730        35.1498 
 242   0.0000       1.291745        35.1502 
 243   0.0000       1.302688        35.4480 
 244   0.0000       1.302727        35.4490 
 245   0.0000       1.304237        35.4901 
 246   0.0000       1.375147        37.4196 
 247   0.0000       1.375207        37.4213 
 248   0.0000       1.477923        40.2163 
 249   0.0000       1.477960        40.2173 
 250   0.0000       1.477965        40.2175 
 251   0.0000       1.482740        40.3474 
 252   0.0000       1.482798        40.3490 
 253   0.0000       1.482809        40.3493 
 254   0.0000       1.614183        43.9241 
 255   0.0000       1.614235        43.9256 
 256   0.0000       1.614472        43.9320 
 257   0.0000       1.668178        45.3934 
 258   0.0000       1.668196        45.3939 
 259   0.0000       1.697482        46.1908 
 260   0.0000       1.697495        46.1912 
 261   0.0000       1.697515        46.1917 
 262   0.0000       1.704801        46.3900 
 263   0.0000       1.704875        46.3920 
 264   0.0000       1.706831        46.4452 
 265   0.0000       1.706850        46.4457 
 266   0.0000       1.707011        46.4501 
 267   0.0000       1.720271        46.8109 
 268   0.0000       1.720300        46.8117 
 269   0.0000       1.720431        46.8153 
 270   0.0000       1.748674        47.5838 
 271   0.0000       1.761592        47.9354 
 272   0.0000       1.761888        47.9434 
 273   0.0000       1.761961        47.9454 
 274   0.0000       1.768601        48.1261 
 275   0.0000       1.768604        48.1262 
 276   0.0000       1.781191        48.4687 
 277   0.0000       1.832222        49.8573 
 278   0.0000       1.859102        50.5887 
 279   0.0000       1.872547        50.9546 
 280   0.0000       1.872780        50.9609 
 281   0.0000       1.873687        50.9856 
 282   0.0000       1.879081        51.1324 
 283   0.0000       1.879341        51.1395 
 284   0.0000       1.879428        51.1418 
 285   0.0000       1.900400        51.7125 
 286   0.0000       1.900420        51.7131 
 287   0.0000       1.900501        51.7153 
 288   0.0000       1.984063        53.9891 
 289   0.0000       1.984187        53.9925 
 290   0.0000       2.005382        54.5692 
 291   0.0000       2.005412        54.5700 
 292   0.0000       2.056942        55.9722 
 293   0.0000       2.057136        55.9775 
 294   0.0000       2.058216        56.0069 
 295   0.0000       2.129593        57.9492 
 296   0.0000       2.129601        57.9494 
 297   0.0000       2.129635        57.9503 
 298   0.0000       2.213447        60.2310 
 299   0.0000       2.213584        60.2347 
 300   0.0000       2.213625        60.2358 
 301   0.0000       2.217748        60.3480 
 302   0.0000       2.217772        60.3487 
 303   0.0000       2.217858        60.3510 
 304   0.0000       2.247059        61.1456 
 305   0.0000       2.247283        61.1517 
 306   0.0000       2.247343        61.1533 
 307   0.0000       2.305365        62.7322 
 308   0.0000       2.402254        65.3686 
 309   0.0000       2.402280        65.3694 
 310   0.0000       2.419999        65.8515 
 311   0.0000       2.420034        65.8525 
 312   0.0000       2.420178        65.8564 
 313   0.0000       2.465151        67.0802 
 314   0.0000       2.490522        67.7705 
 315   0.0000       2.490526        67.7707 
 316   0.0000       2.511245        68.3345 
 317   0.0000       2.642845        71.9155 
 318   0.0000       2.642867        71.9161 
 319   0.0000       2.642934        71.9179 
 320   0.0000       2.673014        72.7364 
 321   0.0000       2.673033        72.7369 
 322   0.0000       2.673086        72.7384 
 323   0.0000       2.673093        72.7386 
 324   0.0000       2.673258        72.7431 
 325   0.0000       2.673274        72.7435 
 326   0.0000       2.694408        73.3186 
 327   0.0000       2.694833        73.3301 
 328   0.0000       2.694920        73.3325 
 329   0.0000       2.753952        74.9388 
 330   0.0000       2.754099        74.9429 
 331   0.0000       2.754135        74.9438 
 332   0.0000       2.808361        76.4194 
 333   0.0000       2.808379        76.4199 
 334   0.0000       2.814214        76.5787 
 335   0.0000       2.814329        76.5818 
 336   0.0000       2.814379        76.5831 
 337   0.0000       2.820454        76.7485 
 338   0.0000       2.820539        76.7508 
 339   0.0000       2.820805        76.7580 
 340   0.0000       2.855754        77.7090 
 341   0.0000       2.933895        79.8353 
 342   0.0000       2.939801        79.9960 
 343   0.0000       2.939850        79.9974 
 344   0.0000       2.939885        79.9983 
 345   0.0000       2.956857        80.4602 
 346   0.0000       2.956875        80.4607 
 347   0.0000       2.956902        80.4614 
 348   0.0000       2.995617        81.5149 
 349   0.0000       2.995646        81.5157 
 350   0.0000       2.995920        81.5231 
 351   0.0000       2.997505        81.5663 
 352   0.0000       3.065725        83.4226 
 353   0.0000       3.065741        83.4230 
 354   0.0000       3.066553        83.4452 
 355   0.0000       3.066623        83.4471 
 356   0.0000       3.066825        83.4526 
 357   0.0000       3.107431        84.5575 
 358   0.0000       3.107474        84.5587 
 359   0.0000       3.107580        84.5616 
 360   0.0000       3.156146        85.8831 
 361   0.0000       3.156155        85.8833 
 362   0.0000       3.156173        85.8838 
 363   0.0000       3.161438        86.0271 
 364   0.0000       3.222204        87.6806 
 365   0.0000       3.223063        87.7040 
 366   0.0000       3.223289        87.7101 
 367   0.0000       3.228994        87.8654 
 368   0.0000       3.229013        87.8659 
 369   0.0000       3.229048        87.8669 
 370   0.0000       3.229147        87.8695 
 371   0.0000       3.229680        87.8841 
 372   0.0000       3.238537        88.1251 
 373   0.0000       3.238668        88.1286 
 374   0.0000       3.239212        88.1434 
 375   0.0000       3.311441        90.1089 
 376   0.0000       3.311449        90.1091 
 377   0.0000       3.311481        90.1100 
 378   0.0000       3.379676        91.9657 
 379   0.0000       3.379799        91.9690 
 380   0.0000       3.379863        91.9708 
 381   0.0000       3.406003        92.6820 
 382   0.0000       3.406016        92.6824 
 383   0.0000       3.449960        93.8782 
 384   0.0000       3.517360        95.7122 
 385   0.0000       3.517700        95.7215 
 386   0.0000       3.517802        95.7243 
 387   0.0000       3.540300        96.3365 
 388   0.0000       3.570873        97.1684 
 389   0.0000       3.570882        97.1687 
 390   0.0000       3.613552        98.3298 
 391   0.0000       3.613582        98.3306 
 392   0.0000       3.613585        98.3306 
 393   0.0000       3.616177        98.4012 
 394   0.0000       3.616235        98.4028 
 395   0.0000       3.780220       102.8650 
 396   0.0000       3.780303       102.8673 
 397   0.0000       3.780643       102.8765 
 398   0.0000       3.803238       103.4914 
 399   0.0000       3.803757       103.5055 
 400   0.0000       3.803889       103.5091 
 401   0.0000       3.810691       103.6942 
 402   0.0000       3.810785       103.6967 
 403   0.0000       3.811098       103.7053 
 404   0.0000       4.213957       114.6676 
 405   0.0000       4.248043       115.5951 
 406   0.0000       4.248073       115.5960 
 407   0.0000       4.380705       119.2050 
 408   0.0000       4.381130       119.2166 
 409   0.0000       4.381226       119.2192 
 410   0.0000       4.415572       120.1538 
 411   0.0000       4.484633       122.0331 
 412   0.0000       4.484671       122.0341 
 413   0.0000       4.694246       127.7369 
 414   0.0000       4.694268       127.7375 
 415   0.0000       4.694392       127.7409 
 416   0.0000       5.077514       138.1662 
 417   0.0000       5.077526       138.1665 
 418   0.0000       5.077531       138.1666 
 419   0.0000       5.077538       138.1668 
 420   0.0000       5.077541       138.1669 
 421   0.0000       5.077556       138.1673 
 422   0.0000       5.077804       138.1741 
 423   0.0000       5.077817       138.1744 
 424   0.0000       5.077821       138.1745 
 425   0.0000       5.078412       138.1906 
 426   0.0000       5.078416       138.1907 
 427   0.0000       5.078439       138.1914 
 428   0.0000       5.495268       149.5338 
 429   0.0000       5.495270       149.5339 
 430   0.0000       5.503724       149.7639 
 431   0.0000       5.503732       149.7642 
 432   0.0000       5.503776       149.7654 
 433   0.0000       5.504204       149.7770 
 434   0.0000       5.506404       149.8369 
 435   0.0000       5.506419       149.8373 
 436   0.0000       5.506425       149.8374 
 437   0.0000       5.519133       150.1832 
 438   0.0000       5.556747       151.2068 
 439   0.0000       5.556759       151.2071 
 440   0.0000       6.204420       168.8308 
 441   0.0000       6.204423       168.8309 
 442   0.0000       6.204425       168.8310 
 443   0.0000       6.313345       171.7948 
 444   0.0000       6.313375       171.7957 
 445   0.0000       6.313380       171.7958 
 446   0.0000       6.315043       171.8411 
 447   0.0000       6.315054       171.8413 
 448   0.0000       6.315064       171.8416 
 449   0.0000       6.332952       172.3284 
 450   0.0000       6.333020       172.3302 
 451   0.0000       6.333305       172.3380 
 452   0.0000       6.381172       173.6405 
 453   0.0000       6.381198       173.6412 
 454   0.0000       6.381367       173.6458 
 455   0.0000       6.392640       173.9526 
 456   0.0000       6.408735       174.3906 
 457   0.0000       6.408746       174.3908 
 458   0.0000       6.415658       174.5789 
 459   0.0000       6.415953       174.5869 
 460   0.0000       6.416010       174.5885 
 461   0.0000       6.443057       175.3245 
 462   0.0000       6.443067       175.3248 
 463   0.0000       6.465433       175.9334 
 464   0.0000       6.627455       180.3422 
 465   0.0000       6.644269       180.7997 
 466   0.0000       6.644274       180.7999 
 467   0.0000       6.652331       181.0191 
 468   0.0000       6.652386       181.0206 
 469   0.0000       6.652405       181.0212 
 470   0.0000       6.821436       185.6207 
 471   0.0000       6.821926       185.6340 
 472   0.0000       6.822047       185.6373 
 473   0.0000       6.835801       186.0116 
 474   0.0000       6.835813       186.0119 
 475   0.0000       6.835822       186.0122 
 476   0.0000       6.839185       186.1037 
 477   0.0000       6.839187       186.1038 
 478   0.0000       6.839204       186.1042 
 479   0.0000       6.843790       186.2290 
 480   0.0000       6.843834       186.2302 
 481   0.0000       6.843839       186.2303 
 482   0.0000       7.171982       195.1596 
 483   0.0000       7.172051       195.1614 
 484   0.0000       7.172081       195.1622 
 485   0.0000       7.193706       195.7507 
 486   0.0000       7.193718       195.7510 
 487   0.0000       7.209038       196.1679 
 488   0.0000      23.036332       626.8505 
 489   0.0000      23.036372       626.8516 
 490   0.0000      23.120939       629.1527 
 491   0.0000      23.131764       629.4473 
 492   0.0000      23.131840       629.4494 
 493   0.0000      23.132081       629.4559 
 494   0.0000      44.145299      1201.2547 
 495   0.0000      44.145334      1201.2556 
 496   0.0000      44.145366      1201.2565 
 497   0.0000      44.145590      1201.2626 
 498   0.0000      44.233519      1203.6552 
 499   0.0000      44.233537      1203.6557 
 500   0.0000      48.758671      1326.7909 
 501   0.0000      48.761465      1326.8669 
 502   0.0000      48.772505      1327.1673 
 503   0.0000      70.793231      1926.3817 
 504   0.0000     582.466579     15849.7214 

                    ********************************
                    * MULLIKEN POPULATION ANALYSIS *
                    ********************************

-----------------------
MULLIKEN ATOMIC CHARGES
-----------------------
   0 W :    1.854533
   1 C :   -0.040059
   2 C :   -0.038428
   3 C :   -0.040014
   4 C :   -0.038390
   5 C :   -0.039803
   6 C :   -0.039980
   7 O :   -0.269847
   8 O :   -0.269448
   9 O :   -0.269499
  10 O :   -0.269584
  11 O :   -0.269730
  12 O :   -0.269751
Sum of atomic charges:   -0.0000000

--------------------------------
MULLIKEN REDUCED ORBITAL CHARGES
--------------------------------
  0 W s       :     2.246585  s :     2.246585
      pz      :     2.007335  p :     6.021271
      px      :     2.007353
      py      :     2.006583
      dz2     :     0.115183  d :     3.809117
      dxz     :     1.172307
      dyz     :     1.213396
      dx2y2   :     0.094867
      dxy     :     1.213364
      f0      :     0.020301  f :     0.068493
      f+1     :     0.009362
      f-1     :     0.008991
      f+2     :     0.002507
      f-2     :     0.000074
      f+3     :     0.013483
      f-3     :     0.013775
  1 C s       :     3.724225  s :     3.724225
      pz      :     0.643850  p :     2.176509
      px      :     0.891016
      py      :     0.641643
      dz2     :     0.006759  d :     0.122082
      dxz     :     0.053383
      dyz     :     0.002354
      dx2y2   :     0.004722
      dxy     :     0.054864
      f0      :     0.002126  f :     0.017242
      f+1     :     0.002169
      f-1     :     0.000349
      f+2     :     0.003676
      f-2     :     0.000252
      f+3     :     0.003172
      f-3     :     0.005500
  2 C s       :     3.722936  s :     3.722936
      pz      :     0.641657  p :     2.176040
      px      :     0.641637
      py      :     0.892746
      dz2     :     0.005231  d :     0.122211
      dxz     :     0.002059
      dyz     :     0.055390
      dx2y2   :     0.004165
      dxy     :     0.055367
      f0      :     0.002241  f :     0.017241
      f+1     :     0.000380
      f-1     :     0.001957
      f+2     :     0.003737
      f-2     :     0.000120
      f+3     :     0.005598
      f-3     :     0.003208
  3 C s       :     3.724364  s :     3.724364
      pz      :     0.643794  p :     2.176331
      px      :     0.890914
      py      :     0.641624
      dz2     :     0.006741  d :     0.122079
      dxz     :     0.053367
      dyz     :     0.002356
      dx2y2   :     0.004742
      dxy     :     0.054873
      f0      :     0.002126  f :     0.017240
      f+1     :     0.002169
      f-1     :     0.000349
      f+2     :     0.003675
      f-2     :     0.000252
      f+3     :     0.003171
      f-3     :     0.005499
  4 C s       :     3.723081  s :     3.723081
      pz      :     0.641623  p :     2.175848
      px      :     0.641611
      py      :     0.892614
      dz2     :     0.005231  d :     0.122218
      dxz     :     0.002061
      dyz     :     0.055386
      dx2y2   :     0.004179
      dxy     :     0.055361
      f0      :     0.002241  f :     0.017243
      f+1     :     0.000380
      f-1     :     0.001956
      f+2     :     0.003738
      f-2     :     0.000121
      f+3     :     0.005599
      f-3     :     0.003208
  5 C s       :     3.724171  s :     3.724171
      pz      :     0.890857  p :     2.176339
      px      :     0.643841
      py      :     0.641640
      dz2     :     0.005098  d :     0.122054
      dxz     :     0.053371
      dyz     :     0.054845
      dx2y2   :     0.006368
      dxy     :     0.002371
      f0      :     0.005129  f :     0.017240
      f+1     :     0.005789
      f-1     :     0.005837
      f+2     :     0.000216
      f-2     :     0.000255
      f+3     :     0.000007
      f-3     :     0.000007
  6 C s       :     3.724226  s :     3.724226
      pz      :     0.890921  p :     2.176430
      px      :     0.643875
      py      :     0.641634
      dz2     :     0.005135  d :     0.122081
      dxz     :     0.053359
      dyz     :     0.054839
      dx2y2   :     0.006371
      dxy     :     0.002377
      f0      :     0.005130  f :     0.017243
      f+1     :     0.005789
      f-1     :     0.005837
      f+2     :     0.000217
      f-2     :     0.000256
      f+3     :     0.000007
      f-3     :     0.000007
  7 O s       :     3.958983  s :     3.958983
      pz      :     1.296354  p :     4.261804
      px      :     1.481860
      py      :     1.483591
      dz2     :     0.008318  d :     0.047347
      dxz     :     0.019259
      dyz     :     0.019559
      dx2y2   :    -0.000007
      dxy     :     0.000219
      f0      :     0.000303  f :     0.001714
      f+1     :     0.000676
      f-1     :     0.000699
      f+2     :     0.000017
      f-2     :     0.000018
      f+3     :     0.000000
      f-3     :     0.000000
  8 O s       :     3.958896  s :     3.958896
      pz      :     1.483555  p :     4.261525
      px      :     1.483529
      py      :     1.294442
      dz2     :     0.001856  d :     0.047312
      dxz     :     0.000026
      dyz     :     0.019745
      dx2y2   :     0.005944
      dxy     :     0.019741
      f0      :     0.000269  f :     0.001714
      f+1     :     0.000045
      f-1     :     0.000105
      f+2     :     0.000447
      f-2     :     0.000002
      f+3     :     0.000671
      f-3     :     0.000175
  9 O s       :     3.958826  s :     3.958826
      pz      :     1.483608  p :     4.261653
      px      :     1.483587
      py      :     1.294458
      dz2     :     0.001856  d :     0.047306
      dxz     :     0.000026
      dyz     :     0.019742
      dx2y2   :     0.005942
      dxy     :     0.019740
      f0      :     0.000269  f :     0.001714
      f+1     :     0.000045
      f-1     :     0.000105
      f+2     :     0.000447
      f-2     :     0.000002
      f+3     :     0.000671
      f-3     :     0.000175
 10 O s       :     3.958854  s :     3.958854
      pz      :     1.296345  p :     4.261660
      px      :     1.481778
      py      :     1.483537
      dz2     :     0.008325  d :     0.047357
      dxz     :     0.019255
      dyz     :     0.019560
      dx2y2   :    -0.000005
      dxy     :     0.000222
      f0      :     0.000303  f :     0.001714
      f+1     :     0.000676
      f-1     :     0.000699
      f+2     :     0.000018
      f-2     :     0.000018
      f+3     :     0.000000
      f-3     :     0.000000
 11 O s       :     3.958941  s :     3.958941
      pz      :     1.481865  p :     4.261729
      px      :     1.296300
      py      :     1.483564
      dz2     :     0.002286  d :     0.047347
      dxz     :     0.019269
      dyz     :     0.000215
      dx2y2   :     0.006014
      dxy     :     0.019564
      f0      :     0.000248  f :     0.001714
      f+1     :     0.000143
      f-1     :     0.000041
      f+2     :     0.000429
      f-2     :     0.000018
      f+3     :     0.000176
      f-3     :     0.000659
 12 O s       :     3.958960  s :     3.958960
      pz      :     1.481865  p :     4.261729
      px      :     1.296286
      py      :     1.483578
      dz2     :     0.002284  d :     0.047349
      dxz     :     0.019267
      dyz     :     0.000215
      dx2y2   :     0.006015
      dxy     :     0.019569
      f0      :     0.000248  f :     0.001714
      f+1     :     0.000143
      f-1     :     0.000041
      f+2     :     0.000429
      f-2     :     0.000018
      f+3     :     0.000176
      f-3     :     0.000659


                     *******************************
                     * LOEWDIN POPULATION ANALYSIS *
                     *******************************

----------------------
LOEWDIN ATOMIC CHARGES
----------------------
   0 W :    0.642464
   1 C :   -0.234186
   2 C :   -0.234127
   3 C :   -0.234054
   4 C :   -0.234130
   5 C :   -0.234065
   6 C :   -0.234170
   7 O :    0.126964
   8 O :    0.127114
   9 O :    0.126983
  10 O :    0.127121
  11 O :    0.127036
  12 O :    0.127050

-------------------------------
LOEWDIN REDUCED ORBITAL CHARGES
-------------------------------
  0 W s       :     1.938634  s :     1.938634
      pz      :     2.146432  p :     6.439330
      px      :     2.146453
      py      :     2.146445
      dz2     :     0.839727  d :     4.827245
      dxz     :     1.045273
      dyz     :     1.053284
      dx2y2   :     0.835731
      dxy     :     1.053230
      f0      :     0.045396  f :     0.152326
      f+1     :     0.020765
      f-1     :     0.019936
      f+2     :     0.005330
      f-2     :     0.000154
      f+3     :     0.030043
      f-3     :     0.030703
  1 C s       :     2.965849  s :     2.965849
      pz      :     0.635599  p :     2.370661
      px      :     1.103751
      py      :     0.631311
      dz2     :     0.084577  d :     0.808777
      dxz     :     0.253084
      dyz     :     0.016548
      dx2y2   :     0.201759
      dxy     :     0.252809
      f0      :     0.010736  f :     0.088898
      f+1     :     0.011760
      f-1     :     0.001710
      f+2     :     0.018466
      f-2     :     0.000968
      f+3     :     0.017702
      f-3     :     0.027557
  2 C s       :     2.965885  s :     2.965885
      pz      :     0.631272  p :     2.370590
      px      :     0.631293
      py      :     1.108025
      dz2     :     0.081316  d :     0.808768
      dxz     :     0.014604
      dyz     :     0.254976
      dx2y2   :     0.202892
      dxy     :     0.254979
      f0      :     0.011251  f :     0.088886
      f+1     :     0.001869
      f-1     :     0.010805
      f+2     :     0.018670
      f-2     :     0.000302
      f+3     :     0.028051
      f-3     :     0.017937
  3 C s       :     2.965892  s :     2.965892
      pz      :     0.635591  p :     2.370587
      px      :     1.103736
      py      :     0.631259
      dz2     :     0.084570  d :     0.808684
      dxz     :     0.253044
      dyz     :     0.016548
      dx2y2   :     0.201744
      dxy     :     0.252778
      f0      :     0.010734  f :     0.088891
      f+1     :     0.011760
      f-1     :     0.001709
      f+2     :     0.018464
      f-2     :     0.000969
      f+3     :     0.017700
      f-3     :     0.027554
  4 C s       :     2.965870  s :     2.965870
      pz      :     0.631262  p :     2.370628
      px      :     0.631292
      py      :     1.108073
      dz2     :     0.081313  d :     0.808729
      dxz     :     0.014607
      dyz     :     0.254957
      dx2y2   :     0.202891
      dxy     :     0.254961
      f0      :     0.011254  f :     0.088903
      f+1     :     0.001870
      f-1     :     0.010805
      f+2     :     0.018674
      f-2     :     0.000304
      f+3     :     0.028058
      f-3     :     0.017939
  5 C s       :     2.965897  s :     2.965897
      pz      :     1.103596  p :     2.370573
      px      :     0.635682
      py      :     0.631295
      dz2     :     0.263384  d :     0.808713
      dxz     :     0.253059
      dyz     :     0.252743
      dx2y2   :     0.022934
      dxy     :     0.016593
      f0      :     0.028682  f :     0.088882
      f+1     :     0.029159
      f-1     :     0.029224
      f+2     :     0.000798
      f-2     :     0.000985
      f+3     :     0.000015
      f-3     :     0.000019
  6 C s       :     2.965845  s :     2.965845
      pz      :     1.103611  p :     2.370670
      px      :     0.635751
      py      :     0.631309
      dz2     :     0.263385  d :     0.808747
      dxz     :     0.253066
      dyz     :     0.252733
      dx2y2   :     0.022948
      dxy     :     0.016615
      f0      :     0.028687  f :     0.088907
      f+1     :     0.029159
      f-1     :     0.029226
      f+2     :     0.000807
      f-2     :     0.000994
      f+3     :     0.000015
      f-3     :     0.000019
  7 O s       :     3.388128  s :     3.388128
      pz      :     1.611484  p :     4.277020
      px      :     1.334061
      py      :     1.331475
      dz2     :     0.113272  d :     0.200721
      dxz     :     0.044263
      dyz     :     0.042275
      dx2y2   :     0.000460
      dxy     :     0.000451
      f0      :     0.003716  f :     0.007167
      f+1     :     0.001743
      f-1     :     0.001625
      f+2     :     0.000041
      f-2     :     0.000041
      f+3     :     0.000000
      f-3     :     0.000000
  8 O s       :     3.388058  s :     3.388058
      pz      :     1.331378  p :     4.276935
      px      :     1.331395
      py      :     1.614163
      dz2     :     0.028868  d :     0.200721
      dxz     :     0.000056
      dyz     :     0.042653
      dx2y2   :     0.086474
      dxy     :     0.042669
      f0      :     0.000623  f :     0.007172
      f+1     :     0.000104
      f-1     :     0.001441
      f+2     :     0.001040
      f-2     :     0.000003
      f+3     :     0.001560
      f-3     :     0.002400
  9 O s       :     3.388116  s :     3.388116
      pz      :     1.331445  p :     4.277013
      px      :     1.331458
      py      :     1.614111
      dz2     :     0.028868  d :     0.200720
      dxz     :     0.000055
      dyz     :     0.042654
      dx2y2   :     0.086477
      dxy     :     0.042666
      f0      :     0.000623  f :     0.007168
      f+1     :     0.000104
      f-1     :     0.001440
      f+2     :     0.001039
      f-2     :     0.000003
      f+3     :     0.001559
      f-3     :     0.002399
 10 O s       :     3.388042  s :     3.388042
      pz      :     1.611517  p :     4.276932
      px      :     1.334017
      py      :     1.331398
      dz2     :     0.113246  d :     0.200732
      dxz     :     0.044290
      dyz     :     0.042276
      dx2y2   :     0.000465
      dxy     :     0.000456
      f0      :     0.003718  f :     0.007173
      f+1     :     0.001745
      f-1     :     0.001626
      f+2     :     0.000042
      f-2     :     0.000042
      f+3     :     0.000000
      f-3     :     0.000000
 11 O s       :     3.388098  s :     3.388098
      pz      :     1.333976  p :     4.276976
      px      :     1.611580
      py      :     1.331420
      dz2     :     0.028471  d :     0.200720
      dxz     :     0.044231
      dyz     :     0.000441
      dx2y2   :     0.085305
      dxy     :     0.042273
      f0      :     0.000639  f :     0.007169
      f+1     :     0.001412
      f-1     :     0.000095
      f+2     :     0.001103
      f-2     :     0.000040
      f+3     :     0.002348
      f-3     :     0.001531
 12 O s       :     3.388071  s :     3.388071
      pz      :     1.333955  p :     4.276975
      px      :     1.611589
      py      :     1.331431
      dz2     :     0.028472  d :     0.200733
      dxz     :     0.044231
      dyz     :     0.000441
      dx2y2   :     0.085303
      dxy     :     0.042287
      f0      :     0.000639  f :     0.007171
      f+1     :     0.001412
      f-1     :     0.000095
      f+2     :     0.001103
      f-2     :     0.000040
      f+3     :     0.002349
      f-3     :     0.001532


                      *****************************
                      * MAYER POPULATION ANALYSIS *
                      *****************************

  NA   - Mulliken gross atomic population
  ZA   - Total nuclear charge
  QA   - Mulliken gross atomic charge
  VA   - Mayer's total valence
[...]
     24       0.012324   0.041674  -0.017620  -0.007678   0.000370  -0.005645
     25       0.483297  -0.022483   0.035432  -0.417956   0.014256  -0.298676
     26      -0.009985   0.018784   0.041566   0.006697  -0.000089   0.004920
     27       0.012054   0.041724  -0.017655   0.007619  -0.000356   0.005643
     28       0.483299  -0.022429   0.035336   0.417964  -0.014244   0.298686
     29      -0.009964   0.018785   0.041559  -0.006661   0.000092  -0.004898
     30       0.006346   0.028802  -0.058754  -0.018870   0.035973   0.029044
     31       0.045347  -0.000108   0.011858   0.003625  -0.006759  -0.005431
     32      -0.026265   0.153986   0.456974   0.194774  -0.366603  -0.298900
     33       0.032500   0.457226  -0.152067   0.219116   0.352786  -0.298712
     34       0.045136  -0.009708   0.006592  -0.003891  -0.006117   0.005119
     35      -0.000143   0.058978   0.029202   0.021327   0.034174  -0.029195
     36       0.032509   0.457199  -0.151991  -0.219209  -0.352751   0.298761
     37       0.045417  -0.009761   0.006621   0.003895   0.006124  -0.005119
     38      -0.000141   0.058795   0.028903  -0.021321  -0.034156   0.029205
                 24         25         26         27         28         29    
      0       0.000002  -0.000000   0.000001  -0.000001   0.000022   0.000003
      1       0.000001  -0.000008  -0.000004  -0.000004   0.000021  -0.000003
      2      -0.000015  -0.000001  -0.000005  -0.000008   0.000026  -0.000038
      3       0.039546   0.005455   0.024253  -0.003534   0.041211   0.021187
      4      -0.148402   0.301299   0.338530   0.440213   0.045106   0.165703
      5      -0.435631  -0.001095  -0.189031   0.114564  -0.415547  -0.188345
      6      -0.128592   0.335968   0.313685   0.139427   0.175272  -0.416209
      7       0.000165  -0.011453  -0.000752  -0.004300   0.003762   0.009979
      8      -0.132559  -0.338859   0.308865  -0.109097   0.435756   0.147023
      9      -0.039589  -0.005447  -0.024262  -0.003553   0.041211   0.021210
     10       0.148378  -0.301292  -0.338465   0.440287   0.045119   0.165732
     11       0.435789   0.001081   0.189108   0.114517  -0.415410  -0.188269
     12       0.128620  -0.335973  -0.313675   0.139492   0.175282  -0.416178
     13      -0.000178   0.011584   0.000781  -0.004353   0.003815   0.010092
     14       0.132456   0.338882  -0.308930  -0.109028   0.435739   0.147034
     15      -0.440133  -0.002988  -0.178386  -0.135726  -0.216772   0.394712
     16      -0.111655  -0.369645   0.279749  -0.435886  -0.049192  -0.175759
     17      -0.041078   0.006579  -0.022668  -0.005279  -0.020273   0.041729
     18       0.440112   0.002985   0.178372  -0.135757  -0.216627   0.394765
     19       0.111708   0.369652  -0.279859  -0.435820  -0.049208  -0.175744
     20       0.041300  -0.006559   0.022743  -0.005380  -0.020360   0.041926
     21       0.137741   0.000910   0.055836   0.046841   0.074814  -0.136214
     22       0.034936   0.115735  -0.087588   0.150513   0.016976   0.060685
     23       0.012605  -0.001908   0.006895   0.001803   0.006964  -0.014417
     24      -0.040298   0.105236   0.098258  -0.048172  -0.060531   0.143698
     25       0.000142  -0.003777  -0.000269   0.001483  -0.001301  -0.003445
     26      -0.041501  -0.106150   0.096765   0.037653  -0.150462  -0.050766
     27       0.040287  -0.105235  -0.098262  -0.048154  -0.060528   0.143708
     28      -0.000160   0.003768   0.000316   0.001487  -0.001287  -0.003450
     29       0.041544   0.106141  -0.096742   0.037673  -0.150468  -0.050763
     30      -0.137739  -0.000908  -0.055833   0.046851   0.074775  -0.136230
     31      -0.034955  -0.115734   0.087632   0.150493   0.016980   0.060681
     32      -0.012611   0.001904  -0.006895   0.001802   0.006976  -0.014416
     33       0.012758   0.001523   0.007598   0.001183  -0.014234  -0.007293
     34      -0.046449   0.094330   0.105962  -0.152030  -0.015585  -0.057224
     35      -0.136328  -0.000365  -0.059175  -0.039523   0.143364   0.064976
     36      -0.012749  -0.001523  -0.007594   0.001195  -0.014226  -0.007323
     37       0.046460  -0.094335  -0.105992  -0.152011  -0.015581  -0.057217
     38       0.136261   0.000371   0.059142  -0.039535   0.143403   0.064996
                 30         31         32         33         34         35    
      0      -0.012689  -0.041222   0.065983   0.000008  -0.000093   0.000104
      1      -0.076644  -0.004799  -0.017729   0.000136   0.000001  -0.000011
      2      -0.013299   0.067015   0.039331  -0.000005  -0.000104  -0.000093
      3       0.004465   0.051495   0.001332  -0.020613   0.412344  -0.383374
      4       0.463468   0.032406   0.100200   0.001771  -0.007151   0.006566
      5       0.073011  -0.423582  -0.198120  -0.002070   0.039152  -0.038332
      6       0.068387   0.247737  -0.399682  -0.010310  -0.001022   0.001527
      7       0.021656  -0.009145   0.008360  -0.565415  -0.004489   0.025577
      8       0.087438  -0.403393  -0.235503   0.009005  -0.000990  -0.001346
      9       0.004455   0.051511   0.001334  -0.020637   0.412340  -0.383340
     10       0.463466   0.032406   0.100202   0.001773  -0.007144   0.006559
     11       0.072999  -0.423531  -0.198094  -0.002073   0.039171  -0.038347
     12       0.068388   0.247731  -0.399677  -0.010386  -0.001022   0.001532
     13       0.021660  -0.009253   0.008384  -0.565323  -0.004457   0.025645
     14       0.087411  -0.403384  -0.235504   0.009103  -0.000990  -0.001352
     15       0.083856   0.209427  -0.416004  -0.001451  -0.038498  -0.039254
     16       0.460945   0.036100   0.110275   0.001700   0.007061   0.007467
     17       0.003554  -0.000144  -0.051749   0.015652   0.383888   0.412115
     18       0.083838   0.209461  -0.415957  -0.001453  -0.038643  -0.039402
     19       0.460918   0.036105   0.110270   0.001700   0.007042   0.007445
     20       0.003611  -0.000052  -0.051918   0.015608   0.383836   0.411975
     21      -0.026609  -0.063082   0.130901   0.001101   0.028608   0.029565
     22      -0.143868  -0.011693  -0.034633  -0.000989  -0.005275  -0.005599
     23       0.003391  -0.023430   0.005396  -0.011716  -0.287284  -0.308370
     24      -0.020889  -0.077334   0.124942   0.007784   0.000575  -0.000935
     25       0.018809   0.005078   0.003097   0.423051   0.003336  -0.019196
     26      -0.027719   0.125957   0.073467  -0.006820   0.000528   0.000823
     27      -0.020893  -0.077336   0.124943   0.007726   0.000575  -0.000931
     28       0.018811   0.005048   0.003094   0.423117   0.003359  -0.019147
     29      -0.027725   0.125960   0.073467  -0.006748   0.000528   0.000819
     30      -0.026606  -0.063087   0.130894   0.001103   0.028717   0.029676
     31      -0.143860  -0.011694  -0.034631  -0.000988  -0.005261  -0.005583
     32       0.003380  -0.023452   0.005427  -0.011683  -0.287248  -0.308269
     33       0.002771  -0.004618  -0.023615   0.015448  -0.308541   0.286878
     34      -0.144808  -0.010320  -0.030895  -0.001043   0.005342  -0.004921
     35      -0.022381   0.133321   0.059575   0.001540  -0.029506   0.028498
     36       0.002766  -0.004614  -0.023607   0.015431  -0.308543   0.286902
     37      -0.144809  -0.010321  -0.030894  -0.001042   0.005348  -0.004926
     38      -0.022384   0.133330   0.059584   0.001537  -0.029492   0.028488
                 36         37         38    
      0      -0.000000  -0.000000  -0.000000
      1      -0.000000  -0.000000  -0.000000
      2       0.000000  -0.000000  -0.000000
      3       0.236774  -0.402406   0.333905
      4      -0.004099   0.006966  -0.005778
      5       0.023044  -0.039156   0.032501
      6      -0.008607  -0.000074   0.006145
      7      -0.469268  -0.004011   0.335015
      8       0.007507   0.000066  -0.005362
      9      -0.236736   0.402462  -0.333897
     10       0.004094  -0.006960   0.005772
     11      -0.023051   0.039181  -0.032515
     12       0.008675   0.000074  -0.006192
     13       0.469360   0.004021  -0.335025
     14      -0.007590  -0.000067   0.005417
     15      -0.022424  -0.039643  -0.032583
     16       0.004201   0.007432   0.006104
     17       0.229784   0.406350   0.333892
     18       0.022522   0.039810   0.032709
     19      -0.004192  -0.007415  -0.006089
     20      -0.229872  -0.406432  -0.333893
     21       0.016072   0.028418   0.022615
     22      -0.003013  -0.005328  -0.004239
     23      -0.164680  -0.291211  -0.231712
     24      -0.006214  -0.000053   0.004295
     25      -0.336382  -0.002882   0.232499
     26       0.005438   0.000047  -0.003759
     27       0.006166   0.000053  -0.004262
     28       0.336312   0.002874  -0.232491
     29      -0.005379  -0.000046   0.003719
     30      -0.016143  -0.028538  -0.022705
     31       0.003006   0.005316   0.004229
     32       0.164747   0.291273   0.231713
     33       0.169665  -0.288429   0.231718
     34      -0.002935   0.004990  -0.004009
     35       0.016519  -0.028080   0.022561
     36      -0.169693   0.288386  -0.231723
     37       0.002939  -0.004994   0.004013
     38      -0.016514   0.028062  -0.022551


-----------
IR SPECTRUM
-----------

 Mode   freq       eps      Int      T**2         TX        TY        TZ
       cm**-1   L/(mol*cm) km/mol    a.u.
----------------------------------------------------------------------------
  6:     57.67   0.000000    0.00  0.000000  ( 0.000154  0.000001 -0.000046)
  7:     57.74   0.000000    0.00  0.000000  (-0.000075 -0.000060 -0.000196)
  8:     57.80   0.000000    0.00  0.000000  ( 0.000074  0.000009  0.000032)
  9:     81.32   0.000224    1.13  0.000861  ( 0.007831  0.017225  0.022432)
 10:     81.34   0.000224    1.13  0.000861  (-0.026961 -0.002449  0.011298)
 11:     81.39   0.000224    1.13  0.000861  ( 0.008500 -0.023627  0.015170)
 12:     82.96   0.000000    0.00  0.000000  (-0.000013 -0.000000 -0.000028)
 13:     83.11   0.000000    0.00  0.000000  ( 0.000002 -0.000011 -0.000004)
 14:     83.13   0.000000    0.00  0.000000  ( 0.000002 -0.000011 -0.000002)
 15:    362.76   0.000000    0.00  0.000000  (-0.000005  0.000015 -0.000020)
 16:    362.77   0.000000    0.00  0.000000  (-0.000006  0.000047 -0.000008)
 17:    362.84   0.000000    0.00  0.000000  (-0.000005 -0.000016 -0.000044)
 18:    366.81   0.011830   59.78  0.010064  ( 0.008846  0.099731 -0.006309)
 19:    366.91   0.011823   59.75  0.010056  ( 0.091683 -0.005611  0.040234)
 20:    366.93   0.011831   59.79  0.010062  (-0.039704  0.009340  0.091643)
 21:    406.81   0.000000    0.00  0.000000  (-0.000019  0.000001  0.000004)
 22:    406.89   0.000000    0.00  0.000000  ( 0.000011  0.000003  0.000006)
 23:    424.64   0.000000    0.00  0.000000  ( 0.000008  0.000001  0.000006)
 24:    482.86   0.000000    0.00  0.000000  (-0.000004  0.000003  0.000023)
 25:    482.88   0.000000    0.00  0.000000  ( 0.000000  0.000013  0.000003)
 26:    482.91   0.000000    0.00  0.000000  (-0.000001 -0.000005  0.000007)
 27:    532.89   0.000000    0.00  0.000000  ( 0.000060  0.000017  0.000046)
 28:    532.94   0.000000    0.00  0.000000  (-0.000074 -0.000036  0.000007)
 29:    532.96   0.000000    0.00  0.000000  (-0.000051 -0.000020  0.000058)
 30:    594.40   0.013804   69.76  0.007247  ( 0.013746  0.082782  0.014323)
 31:    594.46   0.013791   69.69  0.007239  ( 0.044449  0.005212 -0.072365)
 32:    594.48   0.013807   69.78  0.007248  (-0.071258  0.019142 -0.042472)
 33:   2051.51   0.439431  2220.71  0.066844  (-0.014899 -0.257902  0.010390)
 34:   2051.62   0.439310  2220.09  0.066822  ( 0.171113 -0.002096  0.193746)
 35:   2051.64   0.439658  2221.85  0.066874  (-0.193260  0.018109  0.170870)
 36:   2077.68   0.000000    0.00  0.000000  ( 0.000033  0.000021 -0.000028)
 37:   2077.76   0.000000    0.00  0.000000  ( 0.000034  0.000005 -0.000017)
 38:   2178.26   0.000000    0.00  0.000000  ( 0.000006 -0.000002  0.000000)

* The epsilon (eps) is given for a Dirac delta lineshape.
** The dipole moment derivative (T) already includes vibrational overlap.

The first frequency considered to be a vibration is 6
The total number of vibrations considered is 33


--------------------------
THERMOCHEMISTRY AT 298.15K
--------------------------

Temperature         ... 298.15 K
Pressure            ... 1.00 atm
Total Mass          ... 351.91 AMU

Throughout the following assumptions are being made:
  (1) The electronic state is orbitally nondegenerate
  (2) There are no thermally accessible electronically excited states
  (3) Hindered rotations indicated by low frequency modes are not
      treated as such but are treated as vibrations and this may
      cause some error
  (4) All equations used are the standard statistical mechanics
      equations for an ideal gas
  (5) All vibrations are strictly harmonic

freq.      57.67  E(vib)   ...       0.51 
freq.      57.74  E(vib)   ...       0.51 
freq.      57.80  E(vib)   ...       0.51 
freq.      81.32  E(vib)   ...       0.48 
freq.      81.34  E(vib)   ...       0.48 
freq.      81.39  E(vib)   ...       0.48 
freq.      82.96  E(vib)   ...       0.48 
freq.      83.11  E(vib)   ...       0.48 
freq.      83.13  E(vib)   ...       0.48 
freq.     362.76  E(vib)   ...       0.22 
freq.     362.77  E(vib)   ...       0.22 
freq.     362.84  E(vib)   ...       0.22 
freq.     366.81  E(vib)   ...       0.22 
freq.     366.91  E(vib)   ...       0.22 
freq.     366.93  E(vib)   ...       0.22 
freq.     406.81  E(vib)   ...       0.19 
freq.     406.89  E(vib)   ...       0.19 
freq.     424.64  E(vib)   ...       0.18 
freq.     482.86  E(vib)   ...       0.15 
freq.     482.88  E(vib)   ...       0.15 
freq.     482.91  E(vib)   ...       0.15 
freq.     532.89  E(vib)   ...       0.13 
freq.     532.94  E(vib)   ...       0.13 
freq.     532.96  E(vib)   ...       0.13 
freq.     594.40  E(vib)   ...       0.10 
freq.     594.46  E(vib)   ...       0.10 
freq.     594.48  E(vib)   ...       0.10 
freq.    2051.51  E(vib)   ...       0.00 
freq.    2051.62  E(vib)   ...       0.00 
freq.    2051.64  E(vib)   ...       0.00 
freq.    2077.68  E(vib)   ...       0.00 
freq.    2077.76  E(vib)   ...       0.00 
freq.    2178.26  E(vib)   ...       0.00 

------------
INNER ENERGY
------------

The inner energy is: U= E(el) + E(ZPE) + E(vib) + E(rot) + E(trans)
    E(el)   - is the total energy from the electronic structure calculation
              = E(kin-el) + E(nuc-el) + E(el-el) + E(nuc-nuc)
    E(ZPE)  - the the zero temperature vibrational energy from the frequency calculation
    E(vib)  - the the finite temperature correction to E(ZPE) due to population
              of excited vibrational states
    E(rot)  - is the rotational thermal energy
    E(trans)- is the translational thermal energy

Summary of contributions to the inner energy U:
Electronic energy                ...   -747.17804382 Eh
Zero point energy                ...      0.04878249 Eh      30.61 kcal/mol
Thermal vibrational correction   ...      0.01184052 Eh       7.43 kcal/mol
Thermal rotational correction    ...      0.00141627 Eh       0.89 kcal/mol
Thermal translational correction ...      0.00141627 Eh       0.89 kcal/mol
-----------------------------------------------------------------------
Total thermal energy                   -747.11458826 Eh


Summary of corrections to the electronic energy:
(perhaps to be used in another calculation)
Total thermal correction                  0.01467307 Eh       9.21 kcal/mol
Non-thermal (ZPE) correction              0.04878249 Eh      30.61 kcal/mol
-----------------------------------------------------------------------
Total correction                          0.06345556 Eh      39.82 kcal/mol


--------
ENTHALPY
--------

The enthalpy is H = U + kB*T
                kB is Boltzmann's constant
Total free energy                 ...   -747.11458826 Eh 
Thermal Enthalpy correction       ...      0.00094421 Eh       0.59 kcal/mol
-----------------------------------------------------------------------
Total Enthalpy                    ...   -747.11364405 Eh


Note: Only C1 symmetry has been detected, increase convergence thresholds 
      if your molecule has a higher symmetry. Symmetry factor of 1.0 is   
      used for the rotational entropy correction. 
 

Note: Rotational entropy computed according to Herzberg 
Infrared and Raman Spectra, Chapter V,1, Van Nostrand Reinhold, 1945 
Point Group:  C1, Symmetry Number:   1  
Rotational constants in cm-1:     0.019326     0.019321     0.019317 

Vibrational entropy computed according to the QRRHO of S. Grimme
Chem.Eur.J. 2012 18 9955


-------
ENTROPY
-------

The entropy contributions are T*S = T*(S(el)+S(vib)+S(rot)+S(trans))
     S(el)   - electronic entropy
     S(vib)  - vibrational entropy
     S(rot)  - rotational entropy
     S(trans)- translational entropy
The entropies will be listed as multiplied by the temperature to get
units of energy

Electronic entropy                ...      0.00000000 Eh      0.00 kcal/mol
Vibrational entropy               ...      0.02135521 Eh     13.40 kcal/mol
Rotational entropy                ...      0.01510019 Eh      9.48 kcal/mol
Translational entropy             ...      0.02065320 Eh     12.96 kcal/mol
-----------------------------------------------------------------------
Final entropy term                ...      0.05710860 Eh     35.84 kcal/mol

In case the symmetry of your molecule has not been determined correctly
or in case you have a reason to use a different symmetry number we print 
out the resulting rotational entropy values for sn=1,12 :
 --------------------------------------------------------
|  sn= 1 | S(rot)=       0.01510019 Eh      9.48 kcal/mol|
|  sn= 2 | S(rot)=       0.01444573 Eh      9.06 kcal/mol|
|  sn= 3 | S(rot)=       0.01406290 Eh      8.82 kcal/mol|
|  sn= 4 | S(rot)=       0.01379128 Eh      8.65 kcal/mol|
|  sn= 5 | S(rot)=       0.01358059 Eh      8.52 kcal/mol|
|  sn= 6 | S(rot)=       0.01340844 Eh      8.41 kcal/mol|
|  sn= 7 | S(rot)=       0.01326290 Eh      8.32 kcal/mol|
|  sn= 8 | S(rot)=       0.01313682 Eh      8.24 kcal/mol|
|  sn= 9 | S(rot)=       0.01302561 Eh      8.17 kcal/mol|
|  sn=10 | S(rot)=       0.01292613 Eh      8.11 kcal/mol|
|  sn=11 | S(rot)=       0.01283614 Eh      8.05 kcal/mol|
|  sn=12 | S(rot)=       0.01275399 Eh      8.00 kcal/mol|
 --------------------------------------------------------


-------------------
GIBBS FREE ENERGY
-------------------

The Gibbs free energy is G = H - T*S

Total enthalpy                    ...   -747.11364405 Eh 
Total entropy correction          ...     -0.05710860 Eh    -35.84 kcal/mol
-----------------------------------------------------------------------
Final Gibbs free energy         ...   -747.17075266 Eh

For completeness - the Gibbs free energy minus the electronic energy
G-E(el)                           ...      0.00729117 Eh      4.58 kcal/mol


Timings for individual modules:

Sum of individual times         ...     1998.363 sec (=  33.306 min)
GTO integral calculation        ...       10.263 sec (=   0.171 min)   0.5 %
SCF iterations                  ...      377.164 sec (=   6.286 min)  18.9 %
SCF Gradient evaluation         ...      118.857 sec (=   1.981 min)   5.9 %
Geometry relaxation             ...        0.310 sec (=   0.005 min)   0.0 %
Analytical frequency calculation...     1491.769 sec (=  24.863 min)  74.6 %
                             ****ORCA TERMINATED NORMALLY****
TOTAL RUN TIME: 0 days 0 hours 33 minutes 19 seconds 495 msec
