
                                 *****************
                                 * O   R   C   A *
                                 *****************

                                            #,                                       
                                            ###                                      
                                            ####                                     
                                            #####                                    
                                            ######                                   
                                           ########,                                 
                                     ,,################,,,,,                         
                               ,,#################################,,                 
                          ,,##########################################,,             
                       ,#########################################, ''#####,          
                    ,#############################################,,   '####,        
                  ,##################################################,,,,####,       
                ,###########''''           ''''###############################       
              ,#####''   ,,,,##########,,,,          '''####'''          '####       
            ,##' ,,,,###########################,,,                        '##       
           ' ,,###''''                  '''############,,,                           
         ,,##''                                '''############,,,,        ,,,,,,###''
      ,#''                                            '''#######################'''  
     '                                                          ''''####''''         
             ,#######,   #######,   ,#######,      ##                                
            ,#'     '#,  ##    ##  ,#'     '#,    #''#        ######   ,####,        
            ##       ##  ##   ,#'  ##            #'  '#       #        #'  '#        
            ##       ##  #######   ##           ,######,      #####,   #    #        
            '#,     ,#'  ##    ##  '#,     ,#' ,#      #,         ##   #,  ,#        
             '#######'   ##     ##  '#######'  #'      '#     #####' # '####'        



                  #######################################################
                  #                        -***-                        #
                  #          Department of theory and spectroscopy      #
                  #    Directorship and core code : Frank Neese         #
                  #        Max Planck Institute fuer Kohlenforschung    #
                  #                Kaiser Wilhelm Platz 1               #
                  #                 D-45470 Muelheim/Ruhr               #
                  #                      Germany                        #
                  #                                                     #
                  #                  All rights reserved                #
                  #                        -***-                        #
                  #######################################################



                         Program Version 5.0.4 -  RELEASE  -

 With contributions from (in alphabetic order):
   Daniel Aravena         : Magnetic Suceptibility
   Michael Atanasov       : Ab Initio Ligand Field Theory (pilot matlab implementation)
   Alexander A. Auer      : GIAO ZORA, VPT2 properties, NMR spectrum
   Ute Becker             : Parallelization
   Giovanni Bistoni       : ED, misc. LED, open-shell LED, HFLD
   Martin Brehm           : Molecular dynamics
   Dmytro Bykov           : SCF Hessian
   Vijay G. Chilkuri      : MRCI spin determinant printing, contributions to CSF-ICE
   Dipayan Datta          : RHF DLPNO-CCSD density
   Achintya Kumar Dutta   : EOM-CC, STEOM-CC
   Dmitry Ganyushin       : Spin-Orbit,Spin-Spin,Magnetic field MRCI
   Miquel Garcia          : C-PCM and meta-GGA Hessian, CC/C-PCM, Gaussian charge scheme
   Yang Guo               : DLPNO-NEVPT2, F12-NEVPT2, CIM, IAO-localization
   Andreas Hansen         : Spin unrestricted coupled pair/coupled cluster methods
   Benjamin Helmich-Paris : MC-RPA, TRAH-SCF, COSX integrals
   Lee Huntington         : MR-EOM, pCC
   Robert Izsak           : Overlap fitted RIJCOSX, COSX-SCS-MP3, EOM
   Marcus Kettner         : VPT2
   Christian Kollmar      : KDIIS, OOCD, Brueckner-CCSD(T), CCSD density, CASPT2, CASPT2-K
   Simone Kossmann        : Meta GGA functionals, TD-DFT gradient, OOMP2, MP2 Hessian
   Martin Krupicka        : Initial AUTO-CI
   Lucas Lang             : DCDCAS
   Marvin Lechner         : AUTO-CI (C++ implementation), FIC-MRCC
   Dagmar Lenk            : GEPOL surface, SMD
   Dimitrios Liakos       : Extrapolation schemes; Compound Job, initial MDCI parallelization
   Dimitrios Manganas     : Further ROCIS development; embedding schemes
   Dimitrios Pantazis     : SARC Basis sets
   Anastasios Papadopoulos: AUTO-CI, single reference methods and gradients
   Taras Petrenko         : DFT Hessian,TD-DFT gradient, ASA, ECA, R-Raman, ABS, FL, XAS/XES, NRVS
   Peter Pinski           : DLPNO-MP2, DLPNO-MP2 Gradient
   Christoph Reimann      : Effective Core Potentials
   Marius Retegan         : Local ZFS, SOC
   Christoph Riplinger    : Optimizer, TS searches, QM/MM, DLPNO-CCSD(T), (RO)-DLPNO pert. Triples
   Tobias Risthaus        : Range-separated hybrids, TD-DFT gradient, RPA, STAB
   Michael Roemelt        : Original ROCIS implementation
   Masaaki Saitow         : Open-shell DLPNO-CCSD energy and density
   Barbara Sandhoefer     : DKH picture change effects
   Avijit Sen             : IP-ROCIS
   Kantharuban Sivalingam : CASSCF convergence, NEVPT2, FIC-MRCI
   Bernardo de Souza      : ESD, SOC TD-DFT
   Georgi Stoychev        : AutoAux, RI-MP2 NMR, DLPNO-MP2 response
   Willem Van den Heuvel  : Paramagnetic NMR
   Boris Wezisla          : Elementary symmetry handling
   Frank Wennmohs         : Technical directorship


 We gratefully acknowledge several colleagues who have allowed us to
 interface, adapt or use parts of their codes:
   Stefan Grimme, W. Hujo, H. Kruse, P. Pracht,  : VdW corrections, initial TS optimization,
                  C. Bannwarth, S. Ehlert          DFT functionals, gCP, sTDA/sTD-DF
   Ed Valeev, F. Pavosevic, A. Kumar             : LibInt (2-el integral package), F12 methods
   Garnet Chan, S. Sharma, J. Yang, R. Olivares  : DMRG
   Ulf Ekstrom                                   : XCFun DFT Library
   Mihaly Kallay                                 : mrcc  (arbitrary order and MRCC methods)
   Jiri Pittner, Ondrej Demel                    : Mk-CCSD
   Frank Weinhold                                : gennbo (NPA and NBO analysis)
   Christopher J. Cramer and Donald G. Truhlar   : smd solvation model
   Lars Goerigk                                  : TD-DFT with DH, B97 family of functionals
   V. Asgeirsson, H. Jonsson                     : NEB implementation
   FAccTs GmbH                                   : IRC, NEB, NEB-TS, DLPNO-Multilevel, CI-OPT
                                                   MM, QMMM, 2- and 3-layer-ONIOM, Crystal-QMMM,
                                                   LR-CPCM, SF, NACMEs, symmetry and pop. for TD-DFT,
                                                   nearIR, NL-DFT gradient (VV10), updates on ESD,
                                                   ML-optimized integration grids
   S Lehtola, MJT Oliveira, MAL Marques          : LibXC Library
   Liviu Ungur et al                             : ANISO software


 Your calculation uses the libint2 library for the computation of 2-el integrals
 For citations please refer to: http://libint.valeyev.net

 Your ORCA version has been built with support for libXC version: 5.1.0
 For citations please refer to: https://tddft.org/programs/libxc/

 This ORCA versions uses:
   CBLAS   interface :  Fast vector & matrix operations
   LAPACKE interface :  Fast linear algebra routines
   Shared memory     :  Shared parallel matrices


================================================================================

cite the ECPs for Hf [Def2-ECP] as follows:
Ce-Yb(ecp-28): M. Dolg, H. Stoll, H.Preuss, J. Chem. Phys., 1989, 90, 1730-1734.
Y-Cd(ecp-28), Hf-Hg(ecp-46): D. Andrae,U. Haeussermann, M. Dolg, H. Stoll, H. Preuss, Theor. Chim. Acta, 1990, 77, 123-141.
In-Sb(ecp-28), Tl-Bi(ecp-46): B. Metz, H. Stoll, M. Dolg, J. Chem. Phys., 2000, 113, 2563-2569.
Te-Xe(ecp-28), Po-Rn(ecp-46): K. A. Peterson, D. Figgen, E. Goll, H. Stoll, M. Dolg, J. Chem. Phys., 2003, 119, 11113-11123.
Rb(ecp-28), Cs(ecp-46): T. Leininger, A. Nicklass, W. Kuechle, H. Stoll, M. Dolg, A. Bergner, Chem. Phys. Lett., 1996, 255, 274-280.
Sr(ecp-28), Ba(ecp-46): M. Kaupp, P. V. Schleyer, H. Stoll and H. Preuss, J. Chem. Phys., 1991, 94, 1360-1366.
La(ecp-46): M. Dolg, H. Stoll, A. Savin, H. Preuss, Theor. Chim. Acta, 1989, 75, 173-194.
Lu(ecp-28): X. Cao, M. Dolg, J. Chem. Phys., 2001, 115, 7348-7355.

ECP parameters for Hf [Def2-ECP] have been obtained from:
TURBOMOLE (7.0.2)

----- Orbital basis set information -----
Your calculation utilizes the basis: def2-SVP
   F. Weigend and R. Ahlrichs, Phys. Chem. Chem. Phys. 7, 3297 (2005).

----- AuxJ basis set information -----
Your calculation utilizes the auxiliary basis: def2/J
   F. Weigend, Phys. Chem. Chem. Phys. 8, 1057 (2006).

================================================================================
                                        WARNINGS
                       Please study these warnings very carefully!
================================================================================

WARNING: Old DensityContainer found on disk!
         Will remove this file - 
         If you want to keep old densities, please start your calculation with a different basename. 


WARNING: Geometry Optimization
  ===> : Switching off AutoStart
         For restart on a previous wavefunction, please use MOREAD

INFO   : the flag for use of the SHARK integral package has been found!

================================================================================
                                       INPUT FILE
================================================================================
NAME = HfCO6.inp
|  1> !B3LYP def2-SVP OPT FREQ

|  2> 

|  3> * xyz -2 1 

|  4> Hf        -0.43733        0.82114       -0.00327

|  5> C          1.85069        0.75179       -0.21043

|  6> C         -0.36713        3.11851        0.00002

|  7> C         -2.72538        0.89099        0.20388

|  8> C         -0.50743       -1.47623       -0.00656

|  9> O         -0.33267        4.24599        0.00163

| 10> O          2.97368        0.71783       -0.31146

| 11> O         -0.54180       -2.60370       -0.00817

| 12> O         -3.84828        0.92536        0.30489

| 13> C         -0.64818        0.83067       -2.29202

| 14> C         -0.22660        0.81111        2.28546

| 15> O         -0.75232        0.83529       -3.41517

| 16> O         -0.12255        0.80608        3.40866

| 17> **                         ****END OF INPUT****
================================================================================

                       *****************************
                       * Geometry Optimization Run *
                       *****************************

Geometry optimization settings:
Update method            Update   .... BFGS
Choice of coordinates    CoordSys .... Z-matrix Internals
Initial Hessian          InHess   .... Almoef's Model

Convergence Tolerances:
Energy Change            TolE     ....  5.0000e-06 Eh
Max. Gradient            TolMAXG  ....  3.0000e-04 Eh/bohr
RMS Gradient             TolRMSG  ....  1.0000e-04 Eh/bohr
Max. Displacement        TolMAXD  ....  4.0000e-03 bohr
RMS Displacement         TolRMSD  ....  2.0000e-03 bohr
Strict Convergence                ....  False
------------------------------------------------------------------------------
                        ORCA OPTIMIZATION COORDINATE SETUP
------------------------------------------------------------------------------

The optimization will be done in new redundant internal coordinates
Making redundant internal coordinates   ...  (new redundants) done
Evaluating the initial hessian          ...  (Almloef) done
Evaluating the coordinates              ...  done
Calculating the B-matrix                .... done
Calculating the G-matrix                .... done
Diagonalizing the G-matrix              .... done
The first mode is                       ....    3
The number of degrees of freedom        ....   33

    -----------------------------------------------------------------
                    Redundant Internal Coordinates


    -----------------------------------------------------------------
         Definition                    Initial Value    Approx d2E/dq
    -----------------------------------------------------------------
      1. B(C   1,Hf  0)                  2.2984         0.051684   
      2. B(C   2,Hf  0)                  2.2984         0.051680   
      3. B(C   3,Hf  0)                  2.2985         0.051675   
      4. B(C   4,Hf  0)                  2.2984         0.051681   
      5. B(O   5,C   2)                  1.1280         1.465101   
      6. B(O   6,C   1)                  1.1280         1.464944   
      7. B(O   7,C   4)                  1.1280         1.465170   
      8. B(O   8,C   3)                  1.1280         1.465369   
      9. B(C   9,Hf  0)                  2.2985         0.051677   
     10. B(C  10,Hf  0)                  2.2984         0.051682   
     11. B(O  11,C   9)                  1.1280         1.465265   
     12. B(O  12,C  10)                  1.1280         1.465032   
     13. A(C   3,Hf  0,C   9)           89.9025         0.214951   
     14. A(C   2,Hf  0,C   9)           90.0047         0.214953   
     15. A(C   1,Hf  0,C  10)           89.9055         0.214958   
     16. A(C   4,Hf  0,C  10)           89.9920         0.214957   
     17. A(C   2,Hf  0,C  10)           90.0078         0.214956   
     18. A(C   4,Hf  0,C   9)           89.9955         0.214953   
     19. A(C   3,Hf  0,C  10)           90.0949         0.214954   
     20. A(C   3,Hf  0,C   4)           90.0082         0.214953   
     21. A(C   1,Hf  0,C   2)           89.9933         0.214957   
     22. A(C   2,Hf  0,C   3)           89.9942         0.214952   
     23. A(C   1,Hf  0,C   4)           90.0042         0.214957   
     24. A(C   1,Hf  0,C   9)           90.0971         0.214955   
     25. L(Hf  0,C   1,O   6,C  10, 1) 179.9673         0.340188   
     26. L(Hf  0,C   1,O   6,C  10, 2) 180.0057         0.340188   
     27. L(Hf  0,C   2,O   5,C   1, 2) 179.9997         0.340190   
     28. L(Hf  0,C   2,O   5,C   1, 1) 179.9996         0.340190   
     29. L(Hf  0,C   3,O   8,C   9, 2) 180.0064         0.340195   
     30. L(Hf  0,C   3,O   8,C   9, 1) 179.9670         0.340195   
     31. L(Hf  0,C   4,O   7,C  10, 2) 180.0023         0.340193   
     32. L(Hf  0,C   4,O   7,C  10, 1) 179.9996         0.340193   
     33. L(Hf  0,C   9,O  11,C   3, 2) 180.0055         0.340193   
     34. L(Hf  0,C   9,O  11,C   3, 1) 179.9662         0.340193   
     35. L(Hf  0,C  10,O  12,C   1, 2) 180.0063         0.340190   
     36. L(Hf  0,C  10,O  12,C   1, 1) 179.9678         0.340190   
    -----------------------------------------------------------------

Number of atoms                         .... 13
Number of degrees of freedom            .... 36

         *************************************************************
         *                GEOMETRY OPTIMIZATION CYCLE   1            *
         *************************************************************
---------------------------------
CARTESIAN COORDINATES (ANGSTROEM)
---------------------------------
  Hf    -0.437330    0.821140   -0.003270
  C      1.850690    0.751790   -0.210430
  C     -0.367130    3.118510    0.000020
  C     -2.725380    0.890990    0.203880
  C     -0.507430   -1.476230   -0.006560
  O     -0.332670    4.245990    0.001630
  O      2.973680    0.717830   -0.311460
  O     -0.541800   -2.603700   -0.008170
  O     -3.848280    0.925360    0.304890
  C     -0.648180    0.830670   -2.292020
  C     -0.226600    0.811110    2.285460
  O     -0.752320    0.835290   -3.415170
  O     -0.122550    0.806080    3.408660

----------------------------
CARTESIAN COORDINATES (A.U.)
----------------------------
  NO LB      ZA    FRAG     MASS         X           Y           Z
   0 Hf   12.0000*   0   178.490   -0.826434    1.551730   -0.006179
   1 C     6.0000    0    12.011    3.497297    1.420677   -0.397655
   2 C     6.0000    0    12.011   -0.693775    5.893130    0.000038
   3 C     6.0000    0    12.011   -5.150222    1.683727    0.385277
   4 C     6.0000    0    12.011   -0.958904   -2.789670   -0.012397
   5 O     8.0000    0    15.999   -0.628655    8.023758    0.003080
   6 O     8.0000    0    15.999    5.619441    1.356502   -0.588574
   7 O     8.0000    0    15.999   -1.023854   -4.920280   -0.015439
   8 O     8.0000    0    15.999   -7.272195    1.748677    0.576159
   9 C     6.0000    0    12.011   -1.224883    1.569739   -4.331290
  10 C     6.0000    0    12.011   -0.428212    1.532776    4.318893
  11 O     8.0000    0    15.999   -1.421679    1.578469   -6.453736
  12 O     8.0000    0    15.999   -0.231586    1.523270    6.441434
* core charge reduced due to ECP

--------------------------------
INTERNAL COORDINATES (ANGSTROEM)
--------------------------------
 Hf     0   0   0     0.000000000000     0.00000000     0.00000000
 C      1   0   0     2.298425593423     0.00000000     0.00000000
 C      1   2   0     2.298444643884    89.99333164     0.00000000
 C      1   2   3     2.298469696885   179.98755957     1.69360706
 C      1   2   3     2.298441591818    90.00418684   180.00022447
 O      3   1   2     1.128007639203   179.99953259    25.06024110
 O      2   1   3     1.128036738143   179.96705257    83.02433160
 O      5   1   2     1.127994897994   179.99832515    13.22061986
 O      4   1   2     1.127957768270   179.96666714    80.51700504
 C      1   2   3     2.298461464959    90.09709529    90.00473603
 C      1   2   3     2.298432671779    89.90546033   269.99218602
 O     10   1   2     1.127977130309   179.96597053   173.40112571
 O     11   1   2     1.128020364798   179.96748502   352.06131053

---------------------------
INTERNAL COORDINATES (A.U.)
---------------------------
 Hf     0   0   0     0.000000000000     0.00000000     0.00000000
 C      1   0   0     4.343394910764     0.00000000     0.00000000
 C      1   2   0     4.343430910919    89.99333164     0.00000000
 C      1   2   3     4.343478254230   179.98755957     1.69360706
 C      1   2   3     4.343425143351    90.00418684   180.00022447
 O      3   1   2     2.131625515064   179.99953259    25.06024110
 O      2   1   3     2.131680504092   179.96705257    83.02433160
 O      5   1   2     2.131601437669   179.99832515    13.22061986
 O      4   1   2     2.131531272659   179.96666714    80.51700504
 C      1   2   3     4.343462698143    90.09709529    90.00473603
 C      1   2   3     4.343408286919    89.90546033   269.99218602
 O     10   1   2     2.131567861610   179.96597053   173.40112571
 O     11   1   2     2.131649562955   179.96748502   352.06131053

---------------------
BASIS SET INFORMATION
---------------------
There are 3 groups of distinct atoms

 Group   1 Type Hf  : 7s6p5d1f contracted to 6s3p2d1f pattern {211111/411/41/1}
 Group   2 Type C   : 7s4p1d contracted to 3s2p1d pattern {511/31/1}
 Group   3 Type O   : 7s4p1d contracted to 3s2p1d pattern {511/31/1}

Atom   0Hf   basis set group =>   1
Atom   1C    basis set group =>   2
Atom   2C    basis set group =>   2
Atom   3C    basis set group =>   2
Atom   4C    basis set group =>   2
Atom   5O    basis set group =>   3
Atom   6O    basis set group =>   3
Atom   7O    basis set group =>   3
Atom   8O    basis set group =>   3
Atom   9C    basis set group =>   2
Atom  10C    basis set group =>   2
Atom  11O    basis set group =>   3
Atom  12O    basis set group =>   3
---------------------------------
AUXILIARY/J BASIS SET INFORMATION
---------------------------------
There are 3 groups of distinct atoms

 Group   1 Type Hf  : 11s5p5d3f3g contracted to 8s5p5d2f3g pattern {41111111/11111/11111/21/111}
 Group   2 Type C   : 12s5p4d2f1g contracted to 6s4p3d1f1g pattern {711111/2111/211/2/1}
 Group   3 Type O   : 12s5p4d2f1g contracted to 6s4p3d1f1g pattern {711111/2111/211/2/1}

Atom   0Hf   basis set group =>   1
Atom   1C    basis set group =>   2
Atom   2C    basis set group =>   2
Atom   3C    basis set group =>   2
Atom   4C    basis set group =>   2
Atom   5O    basis set group =>   3
Atom   6O    basis set group =>   3
Atom   7O    basis set group =>   3
Atom   8O    basis set group =>   3
Atom   9C    basis set group =>   2
Atom  10C    basis set group =>   2
Atom  11O    basis set group =>   3
Atom  12O    basis set group =>   3
-------------------------
ECP PARAMETER INFORMATION
-------------------------

 Group 1, Type Hf ECP Def2-ECP (replacing 60 core electrons, lmax=3)

Atom   0Hf   ECP group =>   1

------------------------------------------------------------------------------
                           ORCA GTO INTEGRAL CALCULATION
                           -- RI-GTO INTEGRALS CHOSEN --
------------------------------------------------------------------------------
------------------------------------------------------------------------------
                   ___                                                        
                  /   \      - P O W E R E D   B Y -                         
                 /     \                                                     
                 |  |  |   _    _      __       _____    __    __             
                 |  |  |  | |  | |    /  \     |  _  \  |  |  /  |          
                  \  \/   | |  | |   /    \    | | | |  |  | /  /          
                 / \  \   | |__| |  /  /\  \   | |_| |  |  |/  /          
                |  |  |   |  __  | /  /__\  \  |    /   |      \           
                |  |  |   | |  | | |   __   |  |    \   |  |\   \          
                \     /   | |  | | |  |  |  |  | |\  \  |  | \   \       
                 \___/    |_|  |_| |__|  |__|  |_| \__\ |__|  \__/        
                                                                              
                      - O R C A' S   B I G   F R I E N D -                    
                                      &                                       
                       - I N T E G R A L  F E E D E R -                       
                                                                              
 v1 FN, 2020, v2 2021                                                         
------------------------------------------------------------------------------


Reading SHARK input file HfCO6.SHARKINP.tmp ... ok
----------------------
SHARK INTEGRAL PACKAGE
----------------------

Number of atoms                             ...     13
Number of basis functions                   ...    200
Number of shells                            ...     84
Maximum angular momentum                    ...      3
Integral batch strategy                     ... SHARK/LIBINT Hybrid
RI-J (if used) integral strategy            ... SPLIT-RIJ (Revised 2003 algorithm where possible)
Printlevel                                  ...      1
Contraction scheme used                     ... SEGMENTED contraction
Coulomb Range Separation                    ... NOT USED
Exchange Range Separation                   ... NOT USED
Finite Nucleus Model                        ... NOT USED
Auxiliary Coulomb fitting basis             ... AVAILABLE
   # of basis functions in Aux-J            ...    677
   # of shells in Aux-J                     ...    203
   Maximum angular momentum in Aux-J        ...      4
Auxiliary J/K fitting basis                 ... NOT available
Auxiliary Correlation fitting basis         ... NOT available
Auxiliary 'external' fitting basis          ... NOT available
Integral threshold                          ...     2.500000e-11
Primitive cut-off                           ...     2.500000e-12
Primitive pair pre-selection threshold      ...     2.500000e-12

Calculating pre-screening integrals         ... done (  0.0 sec) Dimension = 84
Organizing shell pair data                  ... done (  0.0 sec)
Shell pair information
Total number of shell pairs                 ...      3570
Shell pairs after pre-screening             ...      2931
Total number of primitive shell pairs       ...     13535
Primitive shell pairs kept                  ...      7532
          la=0 lb=0:    690 shell pairs
          la=1 lb=0:    960 shell pairs
          la=1 lb=1:    351 shell pairs
          la=2 lb=0:    432 shell pairs
          la=2 lb=1:    330 shell pairs
          la=2 lb=2:     84 shell pairs
          la=3 lb=0:     42 shell pairs
          la=3 lb=1:     27 shell pairs
          la=3 lb=2:     14 shell pairs
          la=3 lb=3:      1 shell pairs

Calculating one electron integrals          ... done (  0.0 sec)
Calculating ECP integrals                   ... done (  0.3 sec)
Calculating RI/J V-Matrix + Cholesky decomp.... done (  0.0 sec)
Calculating Nuclear repulsion               ... done (  0.0 sec) ENN=    679.356281637222 Eh

SHARK setup successfully completed in   0.4 seconds

Maximum memory used throughout the entire GTOINT-calculation: 40.4 MB
-------------------------------------------------------------------------------
                                 ORCA SCF
-------------------------------------------------------------------------------

------------
SCF SETTINGS
------------
Hamiltonian:
 Density Functional     Method          .... DFT(GTOs)
 Exchange Functional    Exchange        .... B88
   X-Alpha parameter    XAlpha          ....  0.666667
   Becke's b parameter  XBeta           ....  0.004200
 Correlation Functional Correlation     .... LYP
 LDA part of GGA corr.  LDAOpt          .... VWN-5
 Gradients option       PostSCFGGA      .... off
 Hybrid DFT is turned on
   Fraction HF Exchange ScalHFX         ....  0.200000
   Scaling of DF-GGA-X  ScalDFX         ....  0.720000
   Scaling of DF-GGA-C  ScalDFC         ....  0.810000
   Scaling of DF-LDA-C  ScalLDAC        ....  1.000000
   Perturbative correction              ....  0.000000
   Density functional embedding theory  .... OFF
   NL short-range parameter             ....  4.800000
 RI-approximation to the Coulomb term is turned on
   Number of AuxJ basis functions       .... 677
   RIJ-COSX (HFX calculated with COS-X)).... on


General Settings:
 Integral files         IntName         .... HfCO6
 Hartree-Fock type      HFTyp           .... RHF
 Total Charge           Charge          ....   -2
 Multiplicity           Mult            ....    1
 Number of Electrons    NEL             ....   98
 Basis Dimension        Dim             ....  200
 Nuclear Repulsion      ENuc            ....    679.3562816372 Eh

Convergence Acceleration:
 DIIS                   CNVDIIS         .... on
   Start iteration      DIISMaxIt       ....    12
   Startup error        DIISStart       ....  0.200000
   # of expansion vecs  DIISMaxEq       ....     5
   Bias factor          DIISBfac        ....   1.050
   Max. coefficient     DIISMaxC        ....  10.000
 Trust-Rad. Augm. Hess. CNVTRAH         .... auto
   Auto Start mean grad. ratio tolernc. ....  1.125000
   Auto Start start iteration           ....    20
   Auto Start num. interpolation iter.  ....    10
   Max. Number of Micro iterations      ....    16
   Max. Number of Macro iterations      .... Maxiter - #DIIS iter
   Number of Davidson start vectors     ....     2
   Converg. threshold I  (grad. norm)   ....   1.000e-05
   Converg. threshold II (energy diff.) ....   1.000e-08
   Grad. Scal. Fac. for Micro threshold ....   0.100
   Minimum threshold for Micro iter.    ....   0.010
   NR start threshold (gradient norm)   ....   0.001
   Initial trust radius                 ....   0.400
   Minimum AH scaling param. (alpha)    ....   1.000
   Maximum AH scaling param. (alpha)    .... 1000.000
   Orbital update algorithm             .... Taylor
   White noise on init. David. guess    .... on
   Maximum white noise                  ....   0.010
   Quad. conv. algorithm                .... NR
 SOSCF                  CNVSOSCF        .... off
 Level Shifting         CNVShift        .... on
   Level shift para.    LevelShift      ....    0.2500
   Turn off err/grad.   ShiftErr        ....    0.0010
 Zerner damping         CNVZerner       .... off
 Static damping         CNVDamp         .... on
   Fraction old density DampFac         ....    0.7000
   Max. Damping (<1)    DampMax         ....    0.9800
   Min. Damping (>=0)   DampMin         ....    0.0000
   Turn off err/grad.   DampErr         ....    0.1000
 Fernandez-Rico         CNVRico         .... off

SCF Procedure:
 Maximum # iterations   MaxIter         ....   125
 SCF integral mode      SCFMode         .... Direct
   Integral package                     .... SHARK and LIBINT hybrid scheme
 Reset frequency        DirectResetFreq ....    20
 Integral Threshold     Thresh          ....  2.500e-11 Eh
 Primitive CutOff       TCut            ....  2.500e-12 Eh

Convergence Tolerance:
 Convergence Check Mode ConvCheckMode   .... Total+1el-Energy
 Convergence forced     ConvForced      .... 0
 Energy Change          TolE            ....  1.000e-08 Eh
 1-El. energy change                    ....  1.000e-05 Eh
 DIIS Error             TolErr          ....  5.000e-07


Diagonalization of the overlap matrix:
Smallest eigenvalue                        ... 1.531e-03
Time for diagonalization                   ...    0.007 sec
Threshold for overlap eigenvalues          ... 1.000e-08
Number of eigenvalues below threshold      ... 0
Time for construction of square roots      ...    0.005 sec
Total time needed                          ...    0.012 sec

Time for model grid setup =    0.200 sec

------------------------------
INITIAL GUESS: MODEL POTENTIAL
------------------------------
Loading Hartree-Fock densities                     ... done
  calling C:\orca_5_0_4\orca HfCO6_atom72.inp > HfCO6_atom72.out in order to generate an atomic fitting density for atom 0 (Hf with ECP) on-the-fly... 
    atom 0 (Hf), assumed electronic state with S=3: 1s2 2s2 2p6 3s2 3p6 4s2 3d10 4p6 5s2 4d10 5p6 6s2 4f14 5d2           ... done
Calculating cut-offs                               ... done
Initializing the effective Hamiltonian             ... done
Setting up the integral package (SHARK)            ... done
Starting the Coulomb interaction                   ... done (   0.1 sec)
Reading the grid                                   ... done
Mapping shells                                     ... done
Starting the XC term evaluation                    ... done (   0.2 sec)
  promolecular density results
     # of electrons  =    156.004084933
     EX              =   -390.362832882
     EC              =     -6.850131041
     EX+EC           =   -397.212963923
Transforming the Hamiltonian                       ... done (   0.0 sec)
Diagonalizing the Hamiltonian                      ... done (   0.0 sec)
Back transforming the eigenvectors                 ... done (   0.0 sec)
Now organizing SCF variables                       ... done
                      ------------------
                      INITIAL GUESS DONE (   2.2 sec)
                      ------------------
-------------------
DFT GRID GENERATION
-------------------

General Integration Accuracy     IntAcc      ... 4.388
Radial Grid Type                 RadialGrid  ... OptM3 with GC (2021)
Angular Grid (max. ang.)         AngularGrid ... 4 (Lebedev-302)
Angular grid pruning method      GridPruning ... 4 (adaptive)
Weight generation scheme         WeightScheme... Becke
Basis function cutoff            BFCut       ... 1.0000e-11
Integration weight cutoff        WCut        ... 1.0000e-14
Angular grids for H and He will be reduced by one unit
Partially contracted basis set               ... off
Rotationally invariant grid construction     ... off

Total number of grid points                  ...    84238
Total number of batches                      ...     1323
Average number of points per batch           ...       63
Average number of grid points per atom       ...     6480
Time for grid setup =    0.758 sec

--------------------
COSX GRID GENERATION
--------------------

GRIDX 1
-------
General Integration Accuracy     IntAcc      ... 3.816
Radial Grid Type                 RadialGrid  ... OptM3 with GC (2021)
Angular Grid (max. ang.)         AngularGrid ... 1 (Lebedev-50)
Angular grid pruning method      GridPruning ... 4 (adaptive)
Weight generation scheme         WeightScheme... Becke
Basis function cutoff            BFCut       ... 1.0000e-11
Integration weight cutoff        WCut        ... 1.0000e-14
Angular grids for H and He will be reduced by one unit
Partially contracted basis set               ... on
Rotationally invariant grid construction     ... off

Total number of grid points                  ...    10308
Total number of batches                      ...      168
Average number of points per batch           ...       61
Average number of grid points per atom       ...      793
UseSFitting                                  ... on

GRIDX 2
-------
General Integration Accuracy     IntAcc      ... 4.020
Radial Grid Type                 RadialGrid  ... OptM3 with GC (2021)
Angular Grid (max. ang.)         AngularGrid ... 2 (Lebedev-110)
Angular grid pruning method      GridPruning ... 4 (adaptive)
Weight generation scheme         WeightScheme... Becke
Basis function cutoff            BFCut       ... 1.0000e-11
Integration weight cutoff        WCut        ... 1.0000e-14
Angular grids for H and He will be reduced by one unit
Partially contracted basis set               ... on
Rotationally invariant grid construction     ... off

Total number of grid points                  ...    25737
Total number of batches                      ...      414
Average number of points per batch           ...       62
Average number of grid points per atom       ...     1980
UseSFitting                                  ... on

GRIDX 3
-------
General Integration Accuracy     IntAcc      ... 4.338
Radial Grid Type                 RadialGrid  ... OptM3 with GC (2021)
Angular Grid (max. ang.)         AngularGrid ... 3 (Lebedev-194)
Angular grid pruning method      GridPruning ... 4 (adaptive)
Weight generation scheme         WeightScheme... Becke
Basis function cutoff            BFCut       ... 1.0000e-11
Integration weight cutoff        WCut        ... 1.0000e-14
Angular grids for H and He will be reduced by one unit
Partially contracted basis set               ... on
Rotationally invariant grid construction     ... off

Total number of grid points                  ...    55682
Total number of batches                      ...      878
Average number of points per batch           ...       63
Average number of grid points per atom       ...     4283
UseSFitting                                  ... on

Time for X-Grid setup             =    1.050 sec

--------------
SCF ITERATIONS
--------------
ITER       Energy         Delta-E        Max-DP      RMS-DP      [F,P]     Damp
               ***  Starting incremental Fock matrix formation  ***
  0   -724.3312680020   0.000000000000 0.55846797  0.00780345  0.6697100 0.7000
  1   -725.7913078412  -1.460039839139 0.32136038  0.00482048  0.2952547 0.7000
                               ***Turning on DIIS***
  2   -726.2897096333  -0.498401792140 0.20705237  0.00269158  0.1298972 0.7000
  3   -726.5251395744  -0.235429941112 0.37237344  0.00544609  0.0815498 0.0000
  4   -727.0273528171  -0.502213242657 0.06219484  0.00146123  0.0928281 0.0000
  5   -727.0881351261  -0.060782309007 0.05485999  0.00091337  0.0512016 0.0000
  6   -727.1031397561  -0.015004630079 0.01259322  0.00025351  0.0112015 0.0000
  7   -727.1043861526  -0.001246396490 0.00688423  0.00010712  0.0054394 0.0000
  8   -727.1045747657  -0.000188613037 0.00258326  0.00004774  0.0019388 0.0000
  9   -727.1046030609  -0.000028295269 0.00230699  0.00003777  0.0008758 0.0000
               *** Restarting incremental Fock matrix formation ***
                                   *** Resetting DIIS ***
 10   -727.1046021218   0.000000939123 0.00090774  0.00001943  0.0001914 0.0000
 11   -727.1046005825   0.000001539305 0.00069843  0.00001156  0.0004886 0.0000
 12   -727.1046025557  -0.000001973147 0.00010577  0.00000358  0.0000857 0.0000
 13   -727.1046025969  -0.000000041189 0.00005796  0.00000252  0.0000603 0.0000
 14   -727.1046026386  -0.000000041736 0.00002961  0.00000107  0.0000322 0.0000
 15   -727.1046026541  -0.000000015539 0.00001540  0.00000031  0.0000103 0.0000
 16   -727.1046026464   0.000000007698 0.00000428  0.00000008  0.0000029 0.0000
 17   -727.1046026454   0.000000000980 0.00000119  0.00000004  0.0000014 0.0000
                 **** Energy Check signals convergence ****

               *****************************************************
               *                     SUCCESS                       *
               *           SCF CONVERGED AFTER  18 CYCLES          *
               *****************************************************

Old exchange energy                            =    -17.161476760 Eh
New exchange energy                            =    -17.161507908 Eh
Exchange energy change after final integration =     -0.000031147 Eh
Total energy after final integration           =   -727.104633792 Eh
Final COS-X integration done in                =    10.346 sec

----------------
TOTAL SCF ENERGY
----------------

Total Energy       :         -727.10463379 Eh          -19785.52296 eV

Components:
Nuclear Repulsion  :          679.35628164 Eh           18486.22424 eV
Electronic Energy  :        -1406.46091543 Eh          -38271.74721 eV
One Electron Energy:        -2388.67233222 Eh          -64999.07865 eV
Two Electron Energy:          982.21141679 Eh           26727.33144 eV
Max COSX asymmetry :            0.00000282 Eh               0.00008 eV

Virial components:
Potential Energy   :        -1419.11331308 Eh          -38616.03645 eV
Kinetic Energy     :          692.00867929 Eh           18830.51349 eV
Virial Ratio       :            2.05071606


DFT components:
N(Alpha)           :       48.999994575893 electrons
N(Beta)            :       48.999994575893 electrons
N(Total)           :       97.999989151787 electrons
E(X)               :      -68.667423474398 Eh       
E(C)               :       -3.994659804899 Eh       
E(XC)              :      -72.662083279297 Eh       
DFET-embed. en.    :        0.000000000000 Eh       

---------------
SCF CONVERGENCE
---------------

  Last Energy change         ...    4.4702e-10  Tolerance :   1.0000e-08
  Last MAX-Density change    ...    0.0000e+00  Tolerance :   1.0000e-07
  Last RMS-Density change    ...    0.0000e+00  Tolerance :   5.0000e-09
  Last DIIS Error            ...    8.4634e-07  Tolerance :   5.0000e-07

             **** THE GBW FILE WAS UPDATED (HfCO6.gbw) ****
             **** DENSITY HfCO6.scfp WAS UPDATED ****
             **** ENERGY FILE WAS UPDATED (HfCO6.en.tmp) ****
             **** THE GBW FILE WAS UPDATED (HfCO6.gbw) ****
             **** DENSITY HfCO6.scfp WAS UPDATED ****
----------------
ORBITAL ENERGIES
----------------

  NO   OCC          E(Eh)            E(eV) 
   0   2.0000     -18.892948      -514.1033 
   1   2.0000     -18.892860      -514.1009 
   2   2.0000     -18.892859      -514.1008 
   3   2.0000     -18.892857      -514.1008 
   4   2.0000     -18.892815      -514.0996 
   5   2.0000     -18.892812      -514.0996 
   6   2.0000      -9.960773      -271.0464 
   7   2.0000      -9.960768      -271.0463 
   8   2.0000      -9.960660      -271.0433 
   9   2.0000      -9.960659      -271.0433 
  10   2.0000      -9.960653      -271.0432 
  11   2.0000      -9.960587      -271.0413 
  12   2.0000      -2.053796       -55.8866 
  13   2.0000      -0.901849       -24.5406 
  14   2.0000      -0.901836       -24.5402 
  15   2.0000      -0.901821       -24.5398 
  16   2.0000      -0.816964       -22.2307 
  17   2.0000      -0.816620       -22.2214 
  18   2.0000      -0.816608       -22.2210 
  19   2.0000      -0.816557       -22.2196 
  20   2.0000      -0.816553       -22.2195 
  21   2.0000      -0.816541       -22.2192 
  22   2.0000      -0.253851        -6.9076 
  23   2.0000      -0.245779        -6.6880 
  24   2.0000      -0.245775        -6.6879 
  25   2.0000      -0.245295        -6.6748 
  26   2.0000      -0.245285        -6.6745 
  27   2.0000      -0.245277        -6.6743 
  28   2.0000      -0.154923        -4.2157 
  29   2.0000      -0.154913        -4.2154 
  30   2.0000      -0.154907        -4.2152 
  31   2.0000      -0.151954        -4.1349 
  32   2.0000      -0.151938        -4.1345 
  33   2.0000      -0.151923        -4.1340 
  34   2.0000      -0.149131        -4.0581 
  35   2.0000      -0.149118        -4.0577 
  36   2.0000      -0.149105        -4.0573 
  37   2.0000      -0.146570        -3.9884 
  38   2.0000      -0.146569        -3.9884 
  39   2.0000      -0.146568        -3.9883 
  40   2.0000      -0.142462        -3.8766 
  41   2.0000      -0.089869        -2.4455 
  42   2.0000      -0.089849        -2.4449 
  43   2.0000      -0.063337        -1.7235 
  44   2.0000      -0.063258        -1.7213 
  45   2.0000      -0.063182        -1.7193 
  46   2.0000       0.164853         4.4859 
  47   2.0000       0.164921         4.4877 
  48   2.0000       0.164937         4.4882 
  49   0.0000       0.261913         7.1270 
  50   0.0000       0.261920         7.1272 
  51   0.0000       0.261929         7.1275 
  52   0.0000       0.293313         7.9814 
  53   0.0000       0.293396         7.9837 
  54   0.0000       0.293483         7.9861 
  55   0.0000       0.307564         8.3692 
  56   0.0000       0.320823         8.7300 
  57   0.0000       0.320924         8.7328 
  58   0.0000       0.321018         8.7354 
  59   0.0000       0.329707         8.9718 
  60   0.0000       0.329731         8.9724 
  61   0.0000       0.329736         8.9726 
  62   0.0000       0.435114        11.8400 
  63   0.0000       0.435121        11.8403 
  64   0.0000       0.439355        11.9554 
  65   0.0000       0.439381        11.9562 
  66   0.0000       0.439409        11.9569 
  67   0.0000       0.525522        14.3002 
  68   0.0000       0.525574        14.3016 
  69   0.0000       0.562308        15.3012 
  70   0.0000       0.562361        15.3026 
  71   0.0000       0.562487        15.3060 
  72   0.0000       0.563267        15.3273 
  73   0.0000       0.633509        17.2387 
  74   0.0000       0.633542        17.2395 
  75   0.0000       0.633627        17.2419 
  76   0.0000       0.732494        19.9322 
  77   0.0000       0.732538        19.9334 
  78   0.0000       0.732599        19.9350 
  79   0.0000       0.744293        20.2532 
  80   0.0000       0.744349        20.2548 
  81   0.0000       0.798668        21.7329 
  82   0.0000       0.820292        22.3213 
  83   0.0000       0.820373        22.3235 
  84   0.0000       0.820473        22.3262 
  85   0.0000       0.858353        23.3570 
  86   0.0000       0.933384        25.3987 
  87   0.0000       0.933399        25.3991 
  88   0.0000       0.933409        25.3994 
  89   0.0000       0.979787        26.6614 
  90   0.0000       0.979978        26.6665 
  91   0.0000       0.980178        26.6720 
  92   0.0000       0.985133        26.8068 
  93   0.0000       0.985475        26.8161 
  94   0.0000       0.985799        26.8249 
  95   0.0000       1.023455        27.8496 
  96   0.0000       1.023470        27.8500 
  97   0.0000       1.023488        27.8505 
  98   0.0000       1.037918        28.2432 
  99   0.0000       1.037921        28.2433 
 100   0.0000       1.043803        28.4033 
 101   0.0000       1.109247        30.1841 
 102   0.0000       1.109372        30.1876 
 103   0.0000       1.109508        30.1913 
 104   0.0000       1.113766        30.3071 
 105   0.0000       1.139591        31.0099 
 106   0.0000       1.139603        31.0102 
 107   0.0000       1.139634        31.0110 
 108   0.0000       1.143240        31.1091 
 109   0.0000       1.143243        31.1092 
 110   0.0000       1.292896        35.1815 
 111   0.0000       1.292966        35.1834 
 112   0.0000       1.293042        35.1855 
 113   0.0000       1.300182        35.3798 
 114   0.0000       1.325995        36.0822 
 115   0.0000       1.326034        36.0832 
 116   0.0000       1.326075        36.0843 
 117   0.0000       1.346385        36.6370 
 118   0.0000       1.346423        36.6380 
 119   0.0000       1.346462        36.6391 
 120   0.0000       1.363886        37.1132 
 121   0.0000       1.363900        37.1136 
 122   0.0000       1.374017        37.3889 
 123   0.0000       1.374660        37.4064 
 124   0.0000       1.375305        37.4240 
 125   0.0000       1.390801        37.8456 
 126   0.0000       1.390809        37.8458 
 127   0.0000       1.390814        37.8460 
 128   0.0000       1.689294        45.9680 
 129   0.0000       1.689513        45.9740 
 130   0.0000       1.689719        45.9796 
 131   0.0000       1.751472        47.6600 
 132   0.0000       1.751484        47.6603 
 133   0.0000       1.895720        51.5852 
 134   0.0000       1.939172        52.7676 
 135   0.0000       1.939189        52.7680 
 136   0.0000       1.939848        52.7860 
 137   0.0000       1.945613        52.9428 
 138   0.0000       1.945651        52.9438 
 139   0.0000       1.945664        52.9442 
 140   0.0000       1.947730        53.0004 
 141   0.0000       1.947797        53.0023 
 142   0.0000       1.947907        53.0053 
 143   0.0000       1.974160        53.7196 
 144   0.0000       1.974167        53.7198 
 145   0.0000       1.974205        53.7209 
 146   0.0000       1.974695        53.7342 
 147   0.0000       1.976111        53.7727 
 148   0.0000       1.976177        53.7745 
 149   0.0000       1.976261        53.7768 
 150   0.0000       2.040499        55.5248 
 151   0.0000       2.040687        55.5299 
 152   0.0000       2.040821        55.5336 
 153   0.0000       2.104272        57.2602 
 154   0.0000       2.104526        57.2671 
 155   0.0000       2.104819        57.2750 
 156   0.0000       2.111396        57.4540 
 157   0.0000       2.111414        57.4545 
 158   0.0000       2.121354        57.7250 
 159   0.0000       2.121553        57.7304 
 160   0.0000       2.121809        57.7374 
 161   0.0000       2.291612        62.3579 
 162   0.0000       2.770166        75.3800 
 163   0.0000       2.770169        75.3801 
 164   0.0000       2.885093        78.5074 
 165   0.0000       2.926156        79.6248 
 166   0.0000       2.926159        79.6248 
 167   0.0000       2.926219        79.6265 
 168   0.0000       2.927122        79.6510 
 169   0.0000       2.927123        79.6511 
 170   0.0000       2.927126        79.6512 
 171   0.0000       2.927399        79.6586 
 172   0.0000       2.927416        79.6590 
 173   0.0000       2.927419        79.6591 
 174   0.0000       2.929044        79.7033 
 175   0.0000       2.929058        79.7037 
 176   0.0000       2.929120        79.7054 
 177   0.0000       3.133586        85.2692 
 178   0.0000       3.133695        85.2722 
 179   0.0000       3.133801        85.2750 
 180   0.0000       3.503971        95.3479 
 181   0.0000       3.503974        95.3480 
 182   0.0000       3.503989        95.3484 
 183   0.0000       3.505996        95.4030 
 184   0.0000       3.506014        95.4035 
 185   0.0000       3.506026        95.4038 
 186   0.0000       3.521738        95.8314 
 187   0.0000       3.521815        95.8335 
 188   0.0000       3.521853        95.8345 
 189   0.0000       3.521873        95.8350 
 190   0.0000       3.521894        95.8356 
 191   0.0000       3.521993        95.8383 
 192   0.0000       3.954845       107.6168 
 193   0.0000       3.954851       107.6170 
 194   0.0000       3.966743       107.9406 
 195   0.0000       3.996364       108.7466 
 196   0.0000       3.996444       108.7488 
 197   0.0000       3.996530       108.7511 
 198   0.0000      72.634633      1976.4889 
 199   0.0000     707.374560     19248.6404 

                    ********************************
                    * MULLIKEN POPULATION ANALYSIS *
                    ********************************

-----------------------
MULLIKEN ATOMIC CHARGES
-----------------------
   0 Hf:   -0.589162
   1 C :   -0.058332
   2 C :   -0.057834
   3 C :   -0.058363
   4 C :   -0.057841
   5 O :   -0.177066
   6 O :   -0.177005
   7 O :   -0.177049
   8 O :   -0.176895
   9 C :   -0.058265
  10 C :   -0.058255
  11 O :   -0.176935
  12 O :   -0.176999
Sum of atomic charges:   -2.0000000

--------------------------------
MULLIKEN REDUCED ORBITAL CHARGES
--------------------------------
  0 Hfs       :     2.492594  s :     2.492594
      pz      :     2.120300  p :     6.360966
      px      :     2.120306
      py      :     2.120361
      dz2     :     0.472032  d :     3.694468
      dxz     :     0.909043
      dyz     :     0.924539
      dx2y2   :     0.466077
      dxy     :     0.922776
      f0      :     0.012577  f :     0.041134
      f+1     :     0.005536
      f-1     :     0.005312
      f+2     :     0.001105
      f-2     :     0.000028
      f+3     :     0.008201
      f-3     :     0.008375
  1 C s       :     3.542075  s :     3.542075
      pz      :     0.708040  p :     2.440790
      px      :     1.027121
      py      :     0.705629
      dz2     :     0.006169  d :     0.075467
      dxz     :     0.025753
      dyz     :     0.000378
      dx2y2   :     0.017353
      dxy     :     0.025813
  2 C s       :     3.541727  s :     3.541727
      pz      :     0.705337  p :     2.440638
      px      :     0.705593
      py      :     1.029709
      dz2     :     0.005826  d :     0.075469
      dxz     :     0.000168
      dyz     :     0.026029
      dx2y2   :     0.017425
      dxy     :     0.026021
  3 C s       :     3.542083  s :     3.542083
      pz      :     0.708017  p :     2.440803
      px      :     1.027168
      py      :     0.705617
      dz2     :     0.006169  d :     0.075477
      dxz     :     0.025758
      dyz     :     0.000379
      dx2y2   :     0.017354
      dxy     :     0.025817
  4 C s       :     3.541725  s :     3.541725
      pz      :     0.705326  p :     2.440645
      px      :     0.705599
      py      :     1.029720
      dz2     :     0.005826  d :     0.075470
      dxz     :     0.000168
      dyz     :     0.026030
      dx2y2   :     0.017424
      dxy     :     0.026022
  5 O s       :     3.692384  s :     3.692384
      pz      :     1.530501  p :     4.463734
      px      :     1.530349
      py      :     1.402883
      dz2     :     0.002166  d :     0.020948
      dxz     :     0.000007
      dyz     :     0.006136
      dx2y2   :     0.006496
      dxy     :     0.006143
  6 O s       :     3.692339  s :     3.692339
      pz      :     1.529440  p :     4.463720
      px      :     1.403892
      py      :     1.530389
      dz2     :     0.002209  d :     0.020946
      dxz     :     0.006147
      dyz     :     0.000056
      dx2y2   :     0.006441
      dxy     :     0.006093
  7 O s       :     3.692373  s :     3.692373
      pz      :     1.530489  p :     4.463727
      px      :     1.530353
      py      :     1.402886
      dz2     :     0.002166  d :     0.020949
      dxz     :     0.000007
      dyz     :     0.006136
      dx2y2   :     0.006496
      dxy     :     0.006143
  8 O s       :     3.692276  s :     3.692276
      pz      :     1.529403  p :     4.463668
      px      :     1.403914
      py      :     1.530351
      dz2     :     0.002210  d :     0.020951
      dxz     :     0.006148
      dyz     :     0.000056
      dx2y2   :     0.006442
      dxy     :     0.006095
  9 C s       :     3.542010  s :     3.542010
      pz      :     1.027280  p :     2.440780
      px      :     0.708198
      py      :     0.705302
      dz2     :     0.023248  d :     0.075475
      dxz     :     0.025763
      dyz     :     0.025834
      dx2y2   :     0.000261
      dxy     :     0.000368
 10 C s       :     3.542006  s :     3.542006
      pz      :     1.027254  p :     2.440780
      px      :     0.708208
      py      :     0.705318
      dz2     :     0.023248  d :     0.075469
      dxz     :     0.025761
      dyz     :     0.025832
      dx2y2   :     0.000260
      dxy     :     0.000368
 11 O s       :     3.692300  s :     3.692300
      pz      :     1.403867  p :     4.463686
      px      :     1.529338
      py      :     1.530481
      dz2     :     0.008599  d :     0.020950
      dxz     :     0.006154
      dyz     :     0.006090
      dx2y2   :     0.000053
      dxy     :     0.000054
 12 O s       :     3.692334  s :     3.692334
      pz      :     1.403854  p :     4.463717
      px      :     1.529361
      py      :     1.530502
      dz2     :     0.008599  d :     0.020947
      dxz     :     0.006153
      dyz     :     0.006089
      dx2y2   :     0.000053
      dxy     :     0.000053


                     *******************************
                     * LOEWDIN POPULATION ANALYSIS *
                     *******************************

----------------------
LOEWDIN ATOMIC CHARGES
----------------------
   0 Hf:   -1.652710
   1 C :    0.026357
   2 C :    0.026440
   3 C :    0.026337
   4 C :    0.026435
   5 O :   -0.084283
   6 O :   -0.084304
   7 O :   -0.084268
   8 O :   -0.084206
   9 C :    0.026357
  10 C :    0.026363
  11 O :   -0.084231
  12 O :   -0.084287

-------------------------------
LOEWDIN REDUCED ORBITAL CHARGES
-------------------------------
  0 Hfs       :     2.456446  s :     2.456446
      pz      :     2.276978  p :     6.831025
      px      :     2.277024
      py      :     2.277023
      dz2     :     0.697216  d :     4.169053
      dxz     :     0.920933
      dyz     :     0.928835
      dx2y2   :     0.694156
      dxy     :     0.927913
      f0      :     0.060228  f :     0.196185
      f+1     :     0.026340
      f-1     :     0.025277
      f+2     :     0.005046
      f-2     :     0.000126
      f+3     :     0.039169
      f-3     :     0.040000
  1 C s       :     3.209332  s :     3.209332
      pz      :     0.720307  p :     2.600561
      px      :     1.163201
      py      :     0.717053
      dz2     :     0.015574  d :     0.163750
      dxz     :     0.051429
      dyz     :     0.000659
      dx2y2   :     0.044840
      dxy     :     0.051248
  2 C s       :     3.209285  s :     3.209285
      pz      :     0.716661  p :     2.600516
      px      :     0.717031
      py      :     1.166824
      dz2     :     0.015061  d :     0.163759
      dxz     :     0.000242
      dyz     :     0.051641
      dx2y2   :     0.045153
      dxy     :     0.051662
  3 C s       :     3.209308  s :     3.209308
      pz      :     0.720287  p :     2.600577
      px      :     1.163241
      py      :     0.717050
      dz2     :     0.015575  d :     0.163778
      dxz     :     0.051439
      dyz     :     0.000660
      dx2y2   :     0.044845
      dxy     :     0.051259
  4 C s       :     3.209278  s :     3.209278
      pz      :     0.716645  p :     2.600523
      px      :     0.717044
      py      :     1.166834
      dz2     :     0.015061  d :     0.163764
      dxz     :     0.000242
      dyz     :     0.051643
      dx2y2   :     0.045153
      dxy     :     0.051665
  5 O s       :     3.493855  s :     3.493855
      pz      :     1.494368  p :     4.556608
      px      :     1.494400
      py      :     1.567839
      dz2     :     0.004533  d :     0.033820
      dxz     :     0.000008
      dyz     :     0.007836
      dx2y2   :     0.013578
      dxy     :     0.007865
  6 O s       :     3.493875  s :     3.493875
      pz      :     1.494931  p :     4.556611
      px      :     1.567239
      py      :     1.494441
      dz2     :     0.004505  d :     0.033818
      dxz     :     0.008019
      dyz     :     0.000071
      dx2y2   :     0.013423
      dxy     :     0.007800
  7 O s       :     3.493846  s :     3.493846
      pz      :     1.494353  p :     4.556601
      px      :     1.494402
      py      :     1.567846
      dz2     :     0.004533  d :     0.033821
      dxz     :     0.000008
      dyz     :     0.007837
      dx2y2   :     0.013578
      dxy     :     0.007865
  8 O s       :     3.493821  s :     3.493821
      pz      :     1.494883  p :     4.556559
      px      :     1.567278
      py      :     1.494398
      dz2     :     0.004505  d :     0.033825
      dxz     :     0.008021
      dyz     :     0.000072
      dx2y2   :     0.013425
      dxy     :     0.007803
  9 C s       :     3.209306  s :     3.209306
      pz      :     1.163406  p :     2.600566
      px      :     0.720528
      py      :     0.716632
      dz2     :     0.059947  d :     0.163771
      dxz     :     0.051469
      dyz     :     0.051254
      dx2y2   :     0.000462
      dxy     :     0.000638
 10 C s       :     3.209318  s :     3.209318
      pz      :     1.163385  p :     2.600563
      px      :     0.720533
      py      :     0.716646
      dz2     :     0.059944  d :     0.163756
      dxz     :     0.051463
      dyz     :     0.051249
      dx2y2   :     0.000461
      dxy     :     0.000638
 11 O s       :     3.493834  s :     3.493834
      pz      :     1.567298  p :     4.556573
      px      :     1.494929
      py      :     1.494345
      dz2     :     0.017871  d :     0.033824
      dxz     :     0.008039
      dyz     :     0.007778
      dx2y2   :     0.000067
      dxy     :     0.000068
 12 O s       :     3.493864  s :     3.493864
      pz      :     1.567276  p :     4.556604
      px      :     1.494955
      py      :     1.494372
      dz2     :     0.017870  d :     0.033820
      dxz     :     0.008038
      dyz     :     0.007777
      dx2y2   :     0.000067
      dxy     :     0.000068


                      *****************************
                      * MAYER POPULATION ANALYSIS *
                      *****************************

  NA   - Mulliken gross atomic population
  ZA   - Total nuclear charge
  QA   - Mulliken gross atomic charge
  VA   - Mayer's total valence
  BVA  - Mayer's bonded valence
  FA   - Mayer's free valence

  ATOM       NA         ZA         QA         VA         BVA        FA
  0 Hf    12.5892    12.0000    -0.5892     5.8774     5.8774    -0.0000
  1 C      6.0583     6.0000    -0.0583     3.4216     3.4216    -0.0000
  2 C      6.0578     6.0000    -0.0578     3.4218     3.4218    -0.0000
  3 C      6.0584     6.0000    -0.0584     3.4216     3.4216    -0.0000
  4 C      6.0578     6.0000    -0.0578     3.4218     3.4218    -0.0000
  5 O      8.1771     8.0000    -0.1771     2.4377     2.4377    -0.0000
  6 O      8.1770     8.0000    -0.1770     2.4377     2.4377    -0.0000
  7 O      8.1770     8.0000    -0.1770     2.4377     2.4377    -0.0000
  8 O      8.1769     8.0000    -0.1769     2.4378     2.4378    -0.0000
  9 C      6.0583     6.0000    -0.0583     3.4217     3.4217    -0.0000
 10 C      6.0583     6.0000    -0.0583     3.4217     3.4217    -0.0000
 11 O      8.1769     8.0000    -0.1769     2.4378     2.4378    -0.0000
 12 O      8.1770     8.0000    -0.1770     2.4377     2.4377    -0.0000

  Mayer bond orders larger than 0.100000
B(  0-Hf,  1-C ) :   0.8794 B(  0-Hf,  2-C ) :   0.8796 B(  0-Hf,  3-C ) :   0.8793 
B(  0-Hf,  4-C ) :   0.8796 B(  0-Hf,  5-O ) :   0.1002 B(  0-Hf,  6-O ) :   0.1001 
B(  0-Hf,  7-O ) :   0.1002 B(  0-Hf,  8-O ) :   0.1001 B(  0-Hf,  9-C ) :   0.8794 
B(  0-Hf, 10-C ) :   0.8794 B(  0-Hf, 11-O ) :   0.1001 B(  0-Hf, 12-O ) :   0.1001 
B(  1-C ,  6-O ) :   2.1885 B(  2-C ,  5-O ) :   2.1886 B(  3-C ,  8-O ) :   2.1887 
B(  4-C ,  7-O ) :   2.1886 B(  9-C , 11-O ) :   2.1887 B( 10-C , 12-O ) :   2.1886 


-------
TIMINGS
-------

Total SCF time: 0 days 0 hours 1 min 28 sec 

Total time                  ....      88.475 sec
Sum of individual times     ....      88.235 sec  ( 99.7%)

Fock matrix formation       ....      83.838 sec  ( 94.8%)
  Split-RI-J                ....       6.205 sec  (  7.4% of F)
  Chain of spheres X        ....      65.867 sec  ( 78.6% of F)
  XC integration            ....      11.676 sec  ( 13.9% of F)
    Basis function eval.    ....       3.876 sec  ( 33.2% of XC)
    Density eval.           ....       4.602 sec  ( 39.4% of XC)
    XC-Functional eval.     ....       0.629 sec  (  5.4% of XC)
    XC-Potential eval.      ....       2.150 sec  ( 18.4% of XC)
Diagonalization             ....       0.188 sec  (  0.2%)
Density matrix formation    ....       0.009 sec  (  0.0%)
Population analysis         ....       0.015 sec  (  0.0%)
Initial guess               ....       1.999 sec  (  2.3%)
Orbital Transformation      ....       0.000 sec  (  0.0%)
Orbital Orthonormalization  ....       0.000 sec  (  0.0%)
DIIS solution               ....       0.178 sec  (  0.2%)
Grid generation             ....       2.008 sec  (  2.3%)

Maximum memory used throughout the entire SCF-calculation: 104.0 MB

-------------------------   --------------------
FINAL SINGLE POINT ENERGY      -727.104633792305
-------------------------   --------------------

------------------------------------------------------------------------------
                         ORCA SCF GRADIENT CALCULATION
------------------------------------------------------------------------------

 ... reading COSX grid (gridx3)
Gradient of the Kohn-Sham DFT energy:
Kohn-Sham wavefunction type      ... RKS
Hartree-Fock exchange scaling    ...    0.200
Number of operators              ...    1
Number of atoms                  ...   13
Basis set dimensions             ...  200
Integral neglect threshold       ... 2.5e-11
Integral primitive cutoff        ... 2.5e-12
SHARK Integral package           ... ON

Nuc. rep. gradient       (SHARK) ... done (  0.0 sec)
HCore & Overlap gradient (SHARK) ... done (  0.2 sec)
ECP gradient             (SHARK) ... done (  0.9 sec)
RI-J gradient            (SHARK) ... done (  1.7 sec)
COSX-gradient                    ... done ( 12.9 sec)
Exchange-correlation gradient    ... done

------------------
CARTESIAN GRADIENT
------------------

   1   Hf  :   -0.000000216   -0.000000964   -0.000000082
   2   C   :    0.117265905   -0.003617259   -0.010538770
   3   C   :    0.003679377    0.117771402    0.000167528
   4   C   :   -0.117457296    0.003663047    0.010555390
   5   C   :   -0.003671759   -0.117803764   -0.000167115
   6   O   :   -0.003304858   -0.107365002   -0.000154296
   7   O   :   -0.106858087    0.003240098    0.009629100
   8   O   :    0.003297501    0.107398755    0.000154182
   9   O   :    0.107048732   -0.003283877   -0.009645466
  10   C   :   -0.010922476    0.000501276   -0.117384979
  11   C   :    0.010904459   -0.000541259    0.117284929
  12   O   :    0.009931999   -0.000441652    0.107045956
  13   O   :   -0.009914373    0.000479193   -0.106946141

Difference to translation invariance:
           :   -0.0000010920   -0.0000000064    0.0000002337

Difference to rotation invariance:
           :    0.0000657760   -0.0000467347   -0.0009004026

Norm of the cartesian gradient     ...    0.3906501174
RMS gradient                       ...    0.0625540821
MAX gradient                       ...    0.1178037635

-------
TIMINGS
-------

Total SCF gradient time            ...       21.176 sec

One electron gradient       ....       1.057 sec  (  5.0%)
RI-J Coulomb gradient       ....       1.710 sec  (  8.1%)
COSX gradient               ....      12.930 sec  ( 61.1%)
XC gradient                 ....       4.771 sec  ( 22.5%)

Maximum memory used throughout the entire SCFGRAD-calculation: 76.4 MB
------------------------------------------------------------------------------
                         ORCA GEOMETRY RELAXATION STEP
------------------------------------------------------------------------------

Reading the OPT-File                    .... done
Getting information on internals        .... done
Copying old internal coords+grads       .... done
Making the new internal coordinates     .... (new redundants).... done
Validating the new internal coordinates .... (new redundants).... done
Calculating the B-matrix                .... done
Calculating the G,G- and P matrices     .... done
Transforming gradient to internals      .... done
Projecting the internal gradient        .... done
Number of atoms                         ....  13
Number of internal coordinates          ....  36
Current Energy                          ....  -727.104633792 Eh
Current gradient norm                   ....     0.390650117 Eh/bohr
Maximum allowed component of the step   ....  0.300
Current trust radius                    ....  0.300
Evaluating the initial hessian          ....  (Almloef) done
Projecting the Hessian                  .... done
Forming the augmented Hessian           .... done
Diagonalizing the augmented Hessian     .... done
Last element of RFO vector              ....  0.957500242
Lowest eigenvalues of augmented Hessian:
 -0.051939320  0.051675929  0.051678033  0.051680384  0.051681705
Length of the computed step             ....  0.301234874
Warning: the length of the step is outside the trust region - taking restricted step instead
The input lambda is                     ....    -0.051939
   iter:   1  x=   -0.052553  g=    1.210274 f(x)=     0.000742
   iter:   2  x=   -0.052558  g=    1.189679 f(x)=     0.000006
   iter:   3  x=   -0.052558  g=    1.189502 f(x)=     0.000000
   iter:   4  x=   -0.052558  g=    1.189502 f(x)=    -0.000000
The output lambda is                    ....    -0.052558 (4 iterations)
The final length of the internal step   ....  0.300000000
Converting the step to cartesian space:
 Initial RMS(Int)=    0.0500000000
Transforming coordinates:
 Iter   0:  RMS(Cart)=    0.0408359084 RMS(Int)=    0.0499999962
 Iter   1:  RMS(Cart)=    0.0000071149 RMS(Int)=    0.0000066316
 Iter   2:  RMS(Cart)=    0.0000026524 RMS(Int)=    0.0000025959
 Iter   3:  RMS(Cart)=    0.0000013630 RMS(Int)=    0.0000013274
 Iter   4:  RMS(Cart)=    0.0000006981 RMS(Int)=    0.0000006792
 Iter   5:  RMS(Cart)=    0.0000003574 RMS(Int)=    0.0000003475
 Iter   6:  RMS(Cart)=    0.0000001830 RMS(Int)=    0.0000001778
 Iter   7:  RMS(Cart)=    0.0000000937 RMS(Int)=    0.0000000910
done
Storing new coordinates                 .... done

                                .--------------------.
          ----------------------|Geometry convergence|-------------------------
          Item                value                   Tolerance       Converged
          ---------------------------------------------------------------------
          RMS gradient        0.0440686310            0.0001000000      NO
          MAX gradient        0.1075326384            0.0003000000      NO
          RMS step            0.0500000000            0.0020000000      NO
          MAX step            0.1003011883            0.0040000000      NO
          ........................................................
          Max(Bonds)      0.0531      Max(Angles)    0.02
          Max(Dihed)        0.00      Max(Improp)    0.00
          ---------------------------------------------------------------------

The optimization has not yet converged - more geometry cycles are needed


    ---------------------------------------------------------------------------
                         Redundant Internal Coordinates
                            (Angstroem and degrees)

        Definition                    Value    dE/dq     Step     New-Value
    ----------------------------------------------------------------------------
     1. B(C   1,Hf  0)                2.2984  0.010454 -0.0531    2.2454   
     2. B(C   2,Hf  0)                2.2984  0.010413 -0.0529    2.2456   
     3. B(C   3,Hf  0)                2.2985  0.010455 -0.0531    2.2454   
     4. B(C   4,Hf  0)                2.2984  0.010412 -0.0529    2.2456   
     5. B(O   5,C   2)                1.1280 -0.107416  0.0375    1.1655   
     6. B(O   6,C   1)                1.1280 -0.107340  0.0374    1.1655   
     7. B(O   7,C   4)                1.1280 -0.107449  0.0375    1.1655   
     8. B(O   8,C   3)                1.1280 -0.107533  0.0375    1.1654   
     9. B(C   9,Hf  0)                2.2985  0.010386 -0.0527    2.2457   
    10. B(C  10,Hf  0)                2.2984  0.010386 -0.0527    2.2457   
    11. B(O  11,C   9)                1.1280 -0.107507  0.0375    1.1655   
    12. B(O  12,C  10)                1.1280 -0.107406  0.0375    1.1655   
    13. A(C   3,Hf  0,C   9)           89.90 -0.000082    0.02     89.92   
    14. A(C   2,Hf  0,C   9)           90.00 -0.000014    0.00     90.01   
    15. A(C   1,Hf  0,C  10)           89.91 -0.000082    0.02     89.92   
    16. A(C   4,Hf  0,C  10)           89.99 -0.000015    0.00     90.00   
    17. A(C   2,Hf  0,C  10)           90.01  0.000015   -0.00     90.00   
    18. A(C   4,Hf  0,C   9)           90.00  0.000014   -0.00     89.99   
    19. A(C   3,Hf  0,C  10)           90.09  0.000082   -0.02     90.08   
    20. A(C   3,Hf  0,C   4)           90.01  0.000014   -0.00     90.01   
    21. A(C   1,Hf  0,C   2)           89.99  0.000013   -0.00     89.99   
    22. A(C   2,Hf  0,C   3)           89.99 -0.000014    0.00     90.00   
    23. A(C   1,Hf  0,C   4)           90.00 -0.000013    0.00     90.01   
    24. A(C   1,Hf  0,C   9)           90.10  0.000082   -0.02     90.08   
    25. L(Hf  0,C   1,O   6,C  10, 1) 179.97 -0.000030    0.00    179.97   
    26. L(Hf  0,C   1,O   6,C  10, 2) 180.01  0.000024   -0.00    180.00   
    27. L(Hf  0,C   2,O   5,C   1, 2) 180.00 -0.000005    0.00    180.00   
    28. L(Hf  0,C   2,O   5,C   1, 1) 180.00  0.000100   -0.01    179.99   
    29. L(Hf  0,C   3,O   8,C   9, 2) 180.01 -0.000023    0.00    180.01   
    30. L(Hf  0,C   3,O   8,C   9, 1) 179.97 -0.000031    0.00    179.97   
    31. L(Hf  0,C   4,O   7,C  10, 2) 180.00  0.000036   -0.01    180.00   
    32. L(Hf  0,C   4,O   7,C  10, 1) 180.00 -0.000015    0.00    180.00   
    33. L(Hf  0,C   9,O  11,C   3, 2) 180.01  0.000004   -0.00    180.00   
    34. L(Hf  0,C   9,O  11,C   3, 1) 179.97  0.000012   -0.00    179.96   
    35. L(Hf  0,C  10,O  12,C   1, 2) 180.01 -0.000003    0.00    180.01   
    36. L(Hf  0,C  10,O  12,C   1, 1) 179.97  0.000012   -0.00    179.97   
    ----------------------------------------------------------------------------

         *************************************************************
         *                GEOMETRY OPTIMIZATION CYCLE   2            *
         *************************************************************
---------------------------------
CARTESIAN COORDINATES (ANGSTROEM)
---------------------------------
  Hf    -0.437342    0.821141   -0.003264
  C      1.797823    0.753500   -0.205954
  C     -0.368751    3.065673    0.000001
  C     -2.672530    0.889263    0.199415
  C     -0.505840   -1.423398   -0.006532
  O     -0.332848    4.230580    0.001675
  O      2.958054    0.718419   -0.310589
  O     -0.541434   -2.588311   -0.008260
  O     -3.832727    0.924764    0.304037
  C     -0.642988    0.830379   -2.239542
  C     -0.231817    0.811427    2.232997
  O     -0.750432    0.835124   -3.400027
  O     -0.124469    0.806268    3.393504

----------------------------
CARTESIAN COORDINATES (A.U.)
----------------------------
  NO LB      ZA    FRAG     MASS         X           Y           Z
   0 Hf   12.0000*   0   178.490   -0.826456    1.551732   -0.006169
   1 C     6.0000    0    12.011    3.397394    1.423909   -0.389198
   2 C     6.0000    0    12.011   -0.696838    5.793282    0.000002
   3 C     6.0000    0    12.011   -5.050350    1.680464    0.376840
   4 C     6.0000    0    12.011   -0.955898   -2.689832   -0.012344
   5 O     8.0000    0    15.999   -0.628991    7.994638    0.003166
   6 O     8.0000    0    15.999    5.589913    1.357615   -0.586929
   7 O     8.0000    0    15.999   -1.023162   -4.891200   -0.015609
   8 O     8.0000    0    15.999   -7.242805    1.747552    0.574546
   9 C     6.0000    0    12.011   -1.215072    1.569189   -4.232120
  10 C     6.0000    0    12.011   -0.438071    1.533376    4.219753
  11 O     8.0000    0    15.999   -1.418112    1.578155   -6.425120
  12 O     8.0000    0    15.999   -0.235212    1.523625    6.412793
* core charge reduced due to ECP

--------------------------------
INTERNAL COORDINATES (ANGSTROEM)
--------------------------------
 Hf     0   0   0     0.000000000000     0.00000000     0.00000000
 C      1   0   0     2.245355302015     0.00000000     0.00000000
 C      1   2   0     2.245581866793    89.99059208     0.00000000
 C      1   2   3     2.245392594087   179.98773825     1.75717795
 C      1   2   3     2.245586291078    90.00704100   180.00015597
 O      3   1   2     1.165461424222   179.98500030   358.68690001
 O      2   1   3     1.165467858386   179.97168943    86.98976740
 O      5   1   2     1.165458676770   179.99731618   221.05739040
 O      4   1   2     1.165445606161   179.97069256    74.56841123
 C      1   2   3     2.245731762499    90.07962816    90.00762899
 C      1   2   3     2.245707242291    89.92307232   269.99540463
 O     10   1   2     1.165458472434   179.96433740   174.34432896
 O     11   1   2     1.165472293879   179.96564160   351.96742702

---------------------------
INTERNAL COORDINATES (A.U.)
---------------------------
 Hf     0   0   0     0.000000000000     0.00000000     0.00000000
 C      1   0   0     4.243106594156     0.00000000     0.00000000
 C      1   2   0     4.243534739538    89.99059208     0.00000000
 C      1   2   3     4.243177065960   179.98773825     1.75717795
 C      1   2   3     4.243543100226    90.00704100   180.00015597
 O      3   1   2     2.202402911430   179.98500030   358.68690001
 O      2   1   3     2.202415070238   179.97168943    86.98976740
 O      5   1   2     2.202397719498   179.99731618   221.05739040
 O      4   1   2     2.202373019627   179.97069256    74.56841123
 C      1   2   3     4.243818001372    90.07962816    90.00762899
 C      1   2   3     4.243771664894    89.92307232   269.99540463
 O     10   1   2     2.202397333359   179.96433740   174.34432896
 O     11   1   2     2.202423452105   179.96564160   351.96742702

------------------------------------------------------------------------------
                   ___                                                        
                  /   \      - P O W E R E D   B Y -                         
                 /     \                                                     
                 |  |  |   _    _      __       _____    __    __             
                 |  |  |  | |  | |    /  \     |  _  \  |  |  /  |          
                  \  \/   | |  | |   /    \    | | | |  |  | /  /          
                 / \  \   | |__| |  /  /\  \   | |_| |  |  |/  /          
                |  |  |   |  __  | /  /__\  \  |    /   |      \           
                |  |  |   | |  | | |   __   |  |    \   |  |\   \          
                \     /   | |  | | |  |  |  |  | |\  \  |  | \   \       
                 \___/    |_|  |_| |__|  |__|  |_| \__\ |__|  \__/        
                                                                              
                      - O R C A' S   B I G   F R I E N D -                    
                                      &                                       
                       - I N T E G R A L  F E E D E R -                       
                                                                              
 v1 FN, 2020, v2 2021                                                         
------------------------------------------------------------------------------


Reading SHARK input file HfCO6.SHARKINP.tmp ... ok
----------------------
SHARK INTEGRAL PACKAGE
----------------------

Number of atoms                             ...     13
Number of basis functions                   ...    200
Number of shells                            ...     84
Maximum angular momentum                    ...      3
Integral batch strategy                     ... SHARK/LIBINT Hybrid
RI-J (if used) integral strategy            ... SPLIT-RIJ (Revised 2003 algorithm where possible)
Printlevel                                  ...      1
Contraction scheme used                     ... SEGMENTED contraction
Coulomb Range Separation                    ... NOT USED
Exchange Range Separation                   ... NOT USED
Finite Nucleus Model                        ... NOT USED
Auxiliary Coulomb fitting basis             ... AVAILABLE
   # of basis functions in Aux-J            ...    677
   # of shells in Aux-J                     ...    203
   Maximum angular momentum in Aux-J        ...      4
Auxiliary J/K fitting basis                 ... NOT available
Auxiliary Correlation fitting basis         ... NOT available
Auxiliary 'external' fitting basis          ... NOT available
Integral threshold                          ...     2.500000e-11
Primitive cut-off                           ...     2.500000e-12
Primitive pair pre-selection threshold      ...     2.500000e-12

Calculating pre-screening integrals         ... done (  0.0 sec) Dimension = 84
Organizing shell pair data                  ... done (  0.0 sec)
Shell pair information
Total number of shell pairs                 ...      3570
Shell pairs after pre-screening             ...      2931
Total number of primitive shell pairs       ...     13535
Primitive shell pairs kept                  ...      7562
          la=0 lb=0:    690 shell pairs
          la=1 lb=0:    960 shell pairs
          la=1 lb=1:    351 shell pairs
          la=2 lb=0:    432 shell pairs
          la=2 lb=1:    330 shell pairs
          la=2 lb=2:     84 shell pairs
          la=3 lb=0:     42 shell pairs
          la=3 lb=1:     27 shell pairs
          la=3 lb=2:     14 shell pairs
          la=3 lb=3:      1 shell pairs

Calculating one electron integrals          ... done (  0.0 sec)
Calculating ECP integrals                   ... done (  0.2 sec)
Calculating RI/J V-Matrix + Cholesky decomp.... done (  0.0 sec)
Calculating Nuclear repulsion               ... done (  0.0 sec) ENN=    681.998982126155 Eh

SHARK setup successfully completed in   0.4 seconds

Maximum memory used throughout the entire GTOINT-calculation: 40.5 MB

Diagonalization of the overlap matrix:
Smallest eigenvalue                        ... 1.235e-03
Time for diagonalization                   ...    0.007 sec
Threshold for overlap eigenvalues          ... 1.000e-08
Number of eigenvalues below threshold      ... 0
Time for construction of square roots      ...    0.005 sec
Total time needed                          ...    0.012 sec

-------------------
DFT GRID GENERATION
-------------------

General Integration Accuracy     IntAcc      ... 4.388
Radial Grid Type                 RadialGrid  ... OptM3 with GC (2021)
Angular Grid (max. ang.)         AngularGrid ... 4 (Lebedev-302)
Angular grid pruning method      GridPruning ... 4 (adaptive)
[...]
     20      -0.048918   0.000920  -0.006035   0.040975   0.036054   0.028187
     21      -0.001638  -0.016746   0.014092  -0.044136  -0.008278   0.008795
     22       0.000050  -0.495467   0.321269   0.063353  -0.251587   0.296232
     23      -0.045883  -0.000731  -0.000523   0.001646  -0.000777   0.000468
     24       0.021249  -0.030290   0.088793  -0.478254   0.410654   0.298043
     25      -0.000630  -0.045675  -0.003536   0.016766  -0.013073  -0.008929
     26      -0.048148   0.002257  -0.002943   0.041471  -0.036315  -0.028112
     27      -0.047961   0.006421  -0.032139   0.072462  -0.013527   0.024266
     28       0.002341   0.078759   0.002219  -0.005138   0.001166  -0.000959
     29      -0.476386   0.014264  -0.359139  -0.081903  -0.169355   0.276559
     30      -0.049125   0.004346   0.016016   0.078826   0.013386  -0.024068
     31       0.001926   0.079040   0.002982  -0.005071   0.001327   0.001092
     32      -0.480184  -0.016330   0.363856   0.014402   0.166087  -0.276404
     33      -0.041821  -0.001625  -0.033986  -0.053225  -0.017104   0.027363
     34       0.001798  -0.046053   0.000926   0.003461   0.000363  -0.001265
     35      -0.485724   0.015162  -0.374988  -0.072935  -0.176538   0.291944
     36      -0.041750  -0.004901   0.043831  -0.042835   0.016690  -0.027419
     37       0.002224  -0.045986  -0.004135   0.002815  -0.001867   0.001313
     38      -0.489805  -0.016725   0.377340   0.027269   0.173217  -0.291762
                 24         25         26         27         28         29    
      0       0.000002  -0.000001   0.000034  -0.000010  -0.000026  -0.000055
      1       0.000003  -0.000000   0.000040  -0.000052  -0.000028   0.000050
      2       0.000005   0.000033   0.000001  -0.000010   0.000014   0.000074
      3      -0.041232  -0.004571   0.017754   0.003844  -0.039461   0.019653
      4       0.044958  -0.059002   0.466173  -0.422926  -0.182756   0.043183
      5      -0.468203  -0.030465   0.040358   0.183166  -0.372655   0.200364
      6       0.045686  -0.101624   0.459767   0.027546  -0.166208  -0.431288
      7      -0.001384   0.003866  -0.013969  -0.000551   0.004566   0.013534
      8       0.021077  -0.461134  -0.103881  -0.187988   0.391453  -0.162990
      9       0.041210   0.004616  -0.018070   0.003695  -0.039546   0.019636
     10      -0.044980   0.059041  -0.466405  -0.422728  -0.182648   0.043201
     11       0.468234   0.030506  -0.040326   0.183183  -0.372650   0.200365
     12      -0.045702   0.101629  -0.459857   0.027663  -0.166112  -0.431231
     13       0.001344  -0.003873   0.013485  -0.000550   0.004335   0.013231
     14      -0.021054   0.461054   0.103875  -0.188019   0.391527  -0.163036
     15      -0.015734   0.034961  -0.158082  -0.011167   0.067326   0.174677
     16       0.000582  -0.001296   0.005141   0.000272  -0.001943  -0.005746
     17      -0.007271   0.158643   0.035719   0.076185  -0.158605   0.066039
     18       0.014154   0.001569  -0.006318  -0.001410   0.016021  -0.007797
     19      -0.015402   0.020255  -0.160151   0.171331   0.074049  -0.017496
     20       0.160887   0.010451  -0.013878  -0.074180   0.150915  -0.081162
     21       0.015741  -0.034963   0.158118  -0.011204   0.067294   0.174657
     22      -0.000583   0.001302  -0.005163   0.000194  -0.001912  -0.005655
     23       0.007249  -0.158607  -0.035716   0.076196  -0.158630   0.066055
     24      -0.014160  -0.001559   0.006215  -0.001369   0.016012  -0.007845
     25       0.015410  -0.020271   0.160244   0.171258   0.074014  -0.017495
     26      -0.160892  -0.010483   0.013885  -0.074180   0.150906  -0.081150
     27       0.467181   0.044424  -0.037529  -0.031623   0.206027   0.411991
     28      -0.039201   0.466620   0.063013   0.424287   0.179005  -0.056661
     29      -0.043833  -0.002382   0.003769   0.004645  -0.018348  -0.038220
     30      -0.467172  -0.044462   0.037570  -0.031609   0.206035   0.412011
     31       0.039209  -0.466657  -0.062920   0.424288   0.178959  -0.056642
     32       0.043778   0.002069  -0.003808   0.004800  -0.018257  -0.038205
     33      -0.160634  -0.015292   0.012886   0.012810  -0.083452  -0.166826
     34       0.013494  -0.160431  -0.021694  -0.171919  -0.072502   0.022974
     35       0.014064   0.000552  -0.001204  -0.001857   0.007230   0.015339
     36       0.160627   0.015288  -0.012919   0.012810  -0.083459  -0.166828
     37      -0.013499   0.160449   0.021646  -0.171919  -0.072491   0.022970
     38      -0.014092  -0.000660   0.001196  -0.001897   0.007221   0.015343
                 30         31         32         33         34         35    
      0      -0.001464  -0.030497  -0.062707   0.000115  -0.000025  -0.000811
      1       0.068522   0.010758  -0.006854   0.000085   0.000808  -0.000014
      2      -0.012684   0.061782  -0.029713  -0.000801   0.000082  -0.000117
      3      -0.005489  -0.028278   0.038873  -0.127198   0.042060   0.549597
      4      -0.460393  -0.065502   0.057574   0.004111   0.000752  -0.016902
      5       0.086458  -0.393897   0.234972   0.009590  -0.003628  -0.050464
      6       0.023104   0.206884   0.419350  -0.001626  -0.017773  -0.001133
      7      -0.018787  -0.008393  -0.010956  -0.060971  -0.563898   0.028618
      8       0.085837  -0.414146   0.199361  -0.002113  -0.000613  -0.000247
      9      -0.005653  -0.028296   0.038900  -0.127108   0.041707   0.549430
     10      -0.460248  -0.065503   0.057520   0.004151   0.000747  -0.017081
     11       0.086468  -0.393869   0.234955   0.009582  -0.003596  -0.050450
     12       0.023198   0.206863   0.419288  -0.001587  -0.017366  -0.001137
     13      -0.018788  -0.008174  -0.010692  -0.061102  -0.563857   0.029095
     14       0.085827  -0.414205   0.199404  -0.002127  -0.000713  -0.000243
     15      -0.009115  -0.075830  -0.153433   0.001275   0.013114   0.000316
     16      -0.014426   0.000090   0.006946   0.045167   0.417740  -0.021187
     17      -0.031473   0.151673  -0.072993   0.001039   0.000508   0.000108
     18       0.002874   0.021610   0.004346   0.094176  -0.031133  -0.407135
     19       0.168523   0.023644  -0.021662  -0.002983  -0.000033   0.012479
     20      -0.031709   0.143125  -0.087675  -0.007609   0.002736   0.037272
     21      -0.009135  -0.075823  -0.153415   0.001246   0.012811   0.000320
     22      -0.014426   0.000004   0.006844   0.045261   0.417710  -0.021529
     23      -0.031472   0.151691  -0.073006   0.001048   0.000582   0.000104
     24       0.002916   0.021624   0.004354   0.094111  -0.030880  -0.407016
     25       0.168472   0.023639  -0.021652  -0.003013  -0.000028   0.012614
     26      -0.031713   0.143119  -0.087675  -0.007603   0.002713   0.037262
     27       0.002193   0.238943   0.399937   0.050857  -0.004913   0.010024
     28      -0.459269  -0.073804   0.046736  -0.002022   0.002261  -0.000577
     29       0.001395  -0.037759  -0.027373   0.547942  -0.052470   0.130651
     30       0.002180   0.238941   0.399945   0.050816  -0.004938   0.010042
     31      -0.459263  -0.073766   0.046711  -0.002204   0.002280  -0.000621
     32       0.001228  -0.037766  -0.027324   0.547928  -0.052776   0.130944
     33      -0.000443  -0.089129  -0.145371  -0.037562   0.003620  -0.007933
     34       0.168170   0.027089  -0.017163   0.001548  -0.001142   0.000414
     35       0.003583  -0.004447   0.020879  -0.405935   0.038879  -0.096747
     36      -0.000441  -0.089123  -0.145380  -0.037532   0.003637  -0.007945
     37       0.168167   0.027084  -0.017159   0.001685  -0.001156   0.000448
     38       0.003626  -0.004448   0.020867  -0.405926   0.039098  -0.096958
                 36         37         38    
      0      -0.000001  -0.000001   0.000000
      1      -0.000001   0.000001  -0.000000
      2       0.000000   0.000000  -0.000000
      3       0.043417  -0.464404  -0.331331
      4      -0.001323   0.014189   0.010117
      5      -0.003946   0.042246   0.030142
      6       0.011943   0.008458  -0.010377
      7       0.382369   0.270712  -0.332608
      8       0.000556   0.000390  -0.000483
      9      -0.042914   0.464701   0.331312
     10       0.001319  -0.014356  -0.010225
     11       0.003900  -0.042274  -0.030141
     12      -0.011663  -0.008272   0.010147
     13      -0.382129  -0.271100   0.332616
     14      -0.000624  -0.000439   0.000540
     15      -0.008587  -0.006075   0.007385
     16      -0.274941  -0.194645   0.236431
     17      -0.000399  -0.000283   0.000344
     18      -0.031218   0.333897   0.235515
     19       0.000957  -0.010193  -0.007193
     20       0.002839  -0.030377  -0.021425
     21       0.008384   0.005943  -0.007216
     22       0.274762   0.194933  -0.236437
     23       0.000448   0.000318  -0.000385
     24       0.030844  -0.334118  -0.235501
     25      -0.000955   0.010312   0.007272
     26      -0.002805   0.030398   0.021425
     27       0.038998  -0.017930   0.030450
     28      -0.001720   0.000794  -0.001345
     29       0.424212  -0.195052   0.331231
     30      -0.038965   0.017904  -0.030427
     31       0.001865  -0.000856   0.001453
     32      -0.424163   0.194951  -0.331221
     33      -0.028051   0.012899  -0.021653
     34       0.001237  -0.000570   0.000956
     35      -0.305030   0.140246  -0.235459
     36       0.028027  -0.012881   0.021635
     37      -0.001340   0.000616  -0.001035
     38       0.304994  -0.140171   0.235452


-----------
IR SPECTRUM
-----------

 Mode   freq       eps      Int      T**2         TX        TY        TZ
       cm**-1   L/(mol*cm) km/mol    a.u.
----------------------------------------------------------------------------
  6:     19.70   0.000000    0.00  0.000000  (-0.000248  0.000121 -0.000221)
  7:     20.08   0.000000    0.00  0.000000  ( 0.000235 -0.000011 -0.000132)
  8:     20.16   0.000000    0.00  0.000000  ( 0.000076 -0.000082  0.000192)
  9:     47.83   0.000071    0.36  0.000461  ( 0.007818 -0.016855  0.010765)
 10:     47.96   0.000071    0.36  0.000460  ( 0.015852 -0.001846 -0.014334)
 11:     48.04   0.000071    0.36  0.000461  (-0.012262 -0.013090 -0.011819)
 12:     60.89   0.000000    0.00  0.000000  ( 0.000001  0.000005 -0.000006)
 13:     61.08   0.000000    0.00  0.000000  ( 0.000003  0.000006 -0.000006)
 14:     61.08   0.000000    0.00  0.000000  ( 0.000006  0.000011  0.000006)
 15:    335.36   0.000000    0.00  0.000000  ( 0.000004 -0.000005  0.000019)
 16:    335.51   0.000000    0.00  0.000000  ( 0.000015 -0.000014 -0.000011)
 17:    335.67   0.000000    0.00  0.000000  (-0.000007  0.000005 -0.000024)
 18:    337.45   0.000956    4.83  0.000884  (-0.001095  0.000056 -0.029715)
 19:    337.54   0.000957    4.84  0.000885  (-0.002020 -0.029680 -0.000000)
 20:    337.64   0.000014    0.07  0.000013  ( 0.003435 -0.001110 -0.000205)
 21:    337.69   0.000940    4.75  0.000869  (-0.029394  0.001939  0.001016)
 22:    337.78   0.000000    0.00  0.000000  (-0.000048 -0.000539 -0.000112)
 23:    346.62   0.000000    0.00  0.000000  (-0.000024  0.000001  0.000009)
 24:    399.19   0.000000    0.00  0.000000  ( 0.000000 -0.000002  0.000002)
 25:    399.28   0.000000    0.00  0.000000  ( 0.000000 -0.000001 -0.000002)
 26:    399.35   0.000000    0.00  0.000000  (-0.000003 -0.000029 -0.000000)
 27:    461.66   0.000000    0.00  0.000000  (-0.000051  0.000076 -0.000017)
 28:    461.74   0.000000    0.00  0.000000  ( 0.000006  0.000080  0.000064)
 29:    461.75   0.000000    0.00  0.000000  (-0.000003  0.000049 -0.000111)
 30:    519.47   0.007137   36.07  0.004288  ( 0.001332 -0.064376  0.011894)
 31:    519.57   0.007138   36.07  0.004287  ( 0.028618 -0.010150 -0.058009)
 32:    519.59   0.007118   35.97  0.004275  ( 0.058811  0.006351  0.027855)
 33:   1876.04   0.652844  3299.21  0.108595  (-0.045643 -0.034488  0.324534)
 34:   1876.08   0.653102  3300.51  0.108636  ( 0.011492 -0.327718 -0.033239)
 35:   1876.12   0.653095  3300.47  0.108632  ( 0.326191  0.006683  0.046766)
 36:   1887.05   0.000000    0.00  0.000000  ( 0.000193  0.000098 -0.000008)
 37:   1887.11   0.000000    0.00  0.000000  ( 0.000104 -0.000159 -0.000044)
 38:   2004.56   0.000000    0.00  0.000000  (-0.000026  0.000001  0.000009)

* The epsilon (eps) is given for a Dirac delta lineshape.
** The dipole moment derivative (T) already includes vibrational overlap.

The first frequency considered to be a vibration is 6
The total number of vibrations considered is 33


--------------------------
THERMOCHEMISTRY AT 298.15K
--------------------------

Temperature         ... 298.15 K
Pressure            ... 1.00 atm
Total Mass          ... 346.55 AMU

Throughout the following assumptions are being made:
  (1) The electronic state is orbitally nondegenerate
  (2) There are no thermally accessible electronically excited states
  (3) Hindered rotations indicated by low frequency modes are not
      treated as such but are treated as vibrations and this may
      cause some error
  (4) All equations used are the standard statistical mechanics
      equations for an ideal gas
  (5) All vibrations are strictly harmonic

freq.      19.70  E(vib)   ...       0.56 
freq.      20.08  E(vib)   ...       0.56 
freq.      20.16  E(vib)   ...       0.56 
freq.      47.83  E(vib)   ...       0.53 
freq.      47.96  E(vib)   ...       0.53 
freq.      48.04  E(vib)   ...       0.53 
freq.      60.89  E(vib)   ...       0.51 
freq.      61.08  E(vib)   ...       0.51 
freq.      61.08  E(vib)   ...       0.51 
freq.     335.36  E(vib)   ...       0.24 
freq.     335.51  E(vib)   ...       0.24 
freq.     335.67  E(vib)   ...       0.24 
freq.     337.45  E(vib)   ...       0.24 
freq.     337.54  E(vib)   ...       0.24 
freq.     337.64  E(vib)   ...       0.24 
freq.     337.69  E(vib)   ...       0.24 
freq.     337.78  E(vib)   ...       0.24 
freq.     346.62  E(vib)   ...       0.23 
freq.     399.19  E(vib)   ...       0.19 
freq.     399.28  E(vib)   ...       0.19 
freq.     399.35  E(vib)   ...       0.19 
freq.     461.66  E(vib)   ...       0.16 
freq.     461.74  E(vib)   ...       0.16 
freq.     461.75  E(vib)   ...       0.16 
freq.     519.47  E(vib)   ...       0.13 
freq.     519.57  E(vib)   ...       0.13 
freq.     519.59  E(vib)   ...       0.13 
freq.    1876.04  E(vib)   ...       0.00 
freq.    1876.08  E(vib)   ...       0.00 
freq.    1876.12  E(vib)   ...       0.00 
freq.    1887.05  E(vib)   ...       0.00 
freq.    1887.11  E(vib)   ...       0.00 
freq.    2004.56  E(vib)   ...       0.00 

------------
INNER ENERGY
------------

The inner energy is: U= E(el) + E(ZPE) + E(vib) + E(rot) + E(trans)
    E(el)   - is the total energy from the electronic structure calculation
              = E(kin-el) + E(nuc-el) + E(el-el) + E(nuc-nuc)
    E(ZPE)  - the the zero temperature vibrational energy from the frequency calculation
    E(vib)  - the the finite temperature correction to E(ZPE) due to population
              of excited vibrational states
    E(rot)  - is the rotational thermal energy
    E(trans)- is the translational thermal energy

Summary of contributions to the inner energy U:
Electronic energy                ...   -727.13588789 Eh
Zero point energy                ...      0.04323199 Eh      27.13 kcal/mol
Thermal vibrational correction   ...      0.01335388 Eh       8.38 kcal/mol
Thermal rotational correction    ...      0.00141627 Eh       0.89 kcal/mol
Thermal translational correction ...      0.00141627 Eh       0.89 kcal/mol
-----------------------------------------------------------------------
Total thermal energy                   -727.07646948 Eh


Summary of corrections to the electronic energy:
(perhaps to be used in another calculation)
Total thermal correction                  0.01618642 Eh      10.16 kcal/mol
Non-thermal (ZPE) correction              0.04323199 Eh      27.13 kcal/mol
-----------------------------------------------------------------------
Total correction                          0.05941841 Eh      37.29 kcal/mol


--------
ENTHALPY
--------

The enthalpy is H = U + kB*T
                kB is Boltzmann's constant
Total free energy                 ...   -727.07646948 Eh 
Thermal Enthalpy correction       ...      0.00094421 Eh       0.59 kcal/mol
-----------------------------------------------------------------------
Total Enthalpy                    ...   -727.07552527 Eh


Note: Only C1 symmetry has been detected, increase convergence thresholds 
      if your molecule has a higher symmetry. Symmetry factor of 1.0 is   
      used for the rotational entropy correction. 
 

Note: Rotational entropy computed according to Herzberg 
Infrared and Raman Spectra, Chapter V,1, Van Nostrand Reinhold, 1945 
Point Group:  C1, Symmetry Number:   1  
Rotational constants in cm-1:     0.017034     0.017030     0.017024 

Vibrational entropy computed according to the QRRHO of S. Grimme
Chem.Eur.J. 2012 18 9955


-------
ENTROPY
-------

The entropy contributions are T*S = T*(S(el)+S(vib)+S(rot)+S(trans))
     S(el)   - electronic entropy
     S(vib)  - vibrational entropy
     S(rot)  - rotational entropy
     S(trans)- translational entropy
The entropies will be listed as multiplied by the temperature to get
units of energy

Electronic entropy                ...      0.00000000 Eh      0.00 kcal/mol
Vibrational entropy               ...      0.02510076 Eh     15.75 kcal/mol
Rotational entropy                ...      0.01527902 Eh      9.59 kcal/mol
Translational entropy             ...      0.02063146 Eh     12.95 kcal/mol
-----------------------------------------------------------------------
Final entropy term                ...      0.06101125 Eh     38.29 kcal/mol

In case the symmetry of your molecule has not been determined correctly
or in case you have a reason to use a different symmetry number we print 
out the resulting rotational entropy values for sn=1,12 :
 --------------------------------------------------------
|  sn= 1 | S(rot)=       0.01527902 Eh      9.59 kcal/mol|
|  sn= 2 | S(rot)=       0.01462457 Eh      9.18 kcal/mol|
|  sn= 3 | S(rot)=       0.01424174 Eh      8.94 kcal/mol|
|  sn= 4 | S(rot)=       0.01397011 Eh      8.77 kcal/mol|
|  sn= 5 | S(rot)=       0.01375942 Eh      8.63 kcal/mol|
|  sn= 6 | S(rot)=       0.01358728 Eh      8.53 kcal/mol|
|  sn= 7 | S(rot)=       0.01344173 Eh      8.43 kcal/mol|
|  sn= 8 | S(rot)=       0.01331566 Eh      8.36 kcal/mol|
|  sn= 9 | S(rot)=       0.01320445 Eh      8.29 kcal/mol|
|  sn=10 | S(rot)=       0.01310497 Eh      8.22 kcal/mol|
|  sn=11 | S(rot)=       0.01301498 Eh      8.17 kcal/mol|
|  sn=12 | S(rot)=       0.01293282 Eh      8.12 kcal/mol|
 --------------------------------------------------------


-------------------
GIBBS FREE ENERGY
-------------------

The Gibbs free energy is G = H - T*S

Total enthalpy                    ...   -727.07552527 Eh 
Total entropy correction          ...     -0.06101125 Eh    -38.29 kcal/mol
-----------------------------------------------------------------------
Final Gibbs free energy         ...   -727.13653653 Eh

For completeness - the Gibbs free energy minus the electronic energy
G-E(el)                           ...     -0.00064863 Eh     -0.41 kcal/mol


Timings for individual modules:

Sum of individual times         ...     1126.946 sec (=  18.782 min)
GTO integral calculation        ...        2.807 sec (=   0.047 min)   0.2 %
SCF iterations                  ...      412.651 sec (=   6.878 min)  36.6 %
SCF Gradient evaluation         ...      107.708 sec (=   1.795 min)   9.6 %
Geometry relaxation             ...        0.179 sec (=   0.003 min)   0.0 %
Analytical frequency calculation...      603.601 sec (=  10.060 min)  53.6 %
                             ****ORCA TERMINATED NORMALLY****
TOTAL RUN TIME: 0 days 0 hours 18 minutes 47 seconds 454 msec
