
                                 *****************
                                 * O   R   C   A *
                                 *****************

                                            #,                                       
                                            ###                                      
                                            ####                                     
                                            #####                                    
                                            ######                                   
                                           ########,                                 
                                     ,,################,,,,,                         
                               ,,#################################,,                 
                          ,,##########################################,,             
                       ,#########################################, ''#####,          
                    ,#############################################,,   '####,        
                  ,##################################################,,,,####,       
                ,###########''''           ''''###############################       
              ,#####''   ,,,,##########,,,,          '''####'''          '####       
            ,##' ,,,,###########################,,,                        '##       
           ' ,,###''''                  '''############,,,                           
         ,,##''                                '''############,,,,        ,,,,,,###''
      ,#''                                            '''#######################'''  
     '                                                          ''''####''''         
             ,#######,   #######,   ,#######,      ##                                
            ,#'     '#,  ##    ##  ,#'     '#,    #''#        ######   ,####,        
            ##       ##  ##   ,#'  ##            #'  '#       #        #'  '#        
            ##       ##  #######   ##           ,######,      #####,   #    #        
            '#,     ,#'  ##    ##  '#,     ,#' ,#      #,         ##   #,  ,#        
             '#######'   ##     ##  '#######'  #'      '#     #####' # '####'        



                  #######################################################
                  #                        -***-                        #
                  #          Department of theory and spectroscopy      #
                  #    Directorship and core code : Frank Neese         #
                  #        Max Planck Institute fuer Kohlenforschung    #
                  #                Kaiser Wilhelm Platz 1               #
                  #                 D-45470 Muelheim/Ruhr               #
                  #                      Germany                        #
                  #                                                     #
                  #                  All rights reserved                #
                  #                        -***-                        #
                  #######################################################



                         Program Version 5.0.4 -  RELEASE  -

 With contributions from (in alphabetic order):
   Daniel Aravena         : Magnetic Suceptibility
   Michael Atanasov       : Ab Initio Ligand Field Theory (pilot matlab implementation)
   Alexander A. Auer      : GIAO ZORA, VPT2 properties, NMR spectrum
   Ute Becker             : Parallelization
   Giovanni Bistoni       : ED, misc. LED, open-shell LED, HFLD
   Martin Brehm           : Molecular dynamics
   Dmytro Bykov           : SCF Hessian
   Vijay G. Chilkuri      : MRCI spin determinant printing, contributions to CSF-ICE
   Dipayan Datta          : RHF DLPNO-CCSD density
   Achintya Kumar Dutta   : EOM-CC, STEOM-CC
   Dmitry Ganyushin       : Spin-Orbit,Spin-Spin,Magnetic field MRCI
   Miquel Garcia          : C-PCM and meta-GGA Hessian, CC/C-PCM, Gaussian charge scheme
   Yang Guo               : DLPNO-NEVPT2, F12-NEVPT2, CIM, IAO-localization
   Andreas Hansen         : Spin unrestricted coupled pair/coupled cluster methods
   Benjamin Helmich-Paris : MC-RPA, TRAH-SCF, COSX integrals
   Lee Huntington         : MR-EOM, pCC
   Robert Izsak           : Overlap fitted RIJCOSX, COSX-SCS-MP3, EOM
   Marcus Kettner         : VPT2
   Christian Kollmar      : KDIIS, OOCD, Brueckner-CCSD(T), CCSD density, CASPT2, CASPT2-K
   Simone Kossmann        : Meta GGA functionals, TD-DFT gradient, OOMP2, MP2 Hessian
   Martin Krupicka        : Initial AUTO-CI
   Lucas Lang             : DCDCAS
   Marvin Lechner         : AUTO-CI (C++ implementation), FIC-MRCC
   Dagmar Lenk            : GEPOL surface, SMD
   Dimitrios Liakos       : Extrapolation schemes; Compound Job, initial MDCI parallelization
   Dimitrios Manganas     : Further ROCIS development; embedding schemes
   Dimitrios Pantazis     : SARC Basis sets
   Anastasios Papadopoulos: AUTO-CI, single reference methods and gradients
   Taras Petrenko         : DFT Hessian,TD-DFT gradient, ASA, ECA, R-Raman, ABS, FL, XAS/XES, NRVS
   Peter Pinski           : DLPNO-MP2, DLPNO-MP2 Gradient
   Christoph Reimann      : Effective Core Potentials
   Marius Retegan         : Local ZFS, SOC
   Christoph Riplinger    : Optimizer, TS searches, QM/MM, DLPNO-CCSD(T), (RO)-DLPNO pert. Triples
   Tobias Risthaus        : Range-separated hybrids, TD-DFT gradient, RPA, STAB
   Michael Roemelt        : Original ROCIS implementation
   Masaaki Saitow         : Open-shell DLPNO-CCSD energy and density
   Barbara Sandhoefer     : DKH picture change effects
   Avijit Sen             : IP-ROCIS
   Kantharuban Sivalingam : CASSCF convergence, NEVPT2, FIC-MRCI
   Bernardo de Souza      : ESD, SOC TD-DFT
   Georgi Stoychev        : AutoAux, RI-MP2 NMR, DLPNO-MP2 response
   Willem Van den Heuvel  : Paramagnetic NMR
   Boris Wezisla          : Elementary symmetry handling
   Frank Wennmohs         : Technical directorship


 We gratefully acknowledge several colleagues who have allowed us to
 interface, adapt or use parts of their codes:
   Stefan Grimme, W. Hujo, H. Kruse, P. Pracht,  : VdW corrections, initial TS optimization,
                  C. Bannwarth, S. Ehlert          DFT functionals, gCP, sTDA/sTD-DF
   Ed Valeev, F. Pavosevic, A. Kumar             : LibInt (2-el integral package), F12 methods
   Garnet Chan, S. Sharma, J. Yang, R. Olivares  : DMRG
   Ulf Ekstrom                                   : XCFun DFT Library
   Mihaly Kallay                                 : mrcc  (arbitrary order and MRCC methods)
   Jiri Pittner, Ondrej Demel                    : Mk-CCSD
   Frank Weinhold                                : gennbo (NPA and NBO analysis)
   Christopher J. Cramer and Donald G. Truhlar   : smd solvation model
   Lars Goerigk                                  : TD-DFT with DH, B97 family of functionals
   V. Asgeirsson, H. Jonsson                     : NEB implementation
   FAccTs GmbH                                   : IRC, NEB, NEB-TS, DLPNO-Multilevel, CI-OPT
                                                   MM, QMMM, 2- and 3-layer-ONIOM, Crystal-QMMM,
                                                   LR-CPCM, SF, NACMEs, symmetry and pop. for TD-DFT,
                                                   nearIR, NL-DFT gradient (VV10), updates on ESD,
                                                   ML-optimized integration grids
   S Lehtola, MJT Oliveira, MAL Marques          : LibXC Library
   Liviu Ungur et al                             : ANISO software


 Your calculation uses the libint2 library for the computation of 2-el integrals
 For citations please refer to: http://libint.valeyev.net

 Your ORCA version has been built with support for libXC version: 5.1.0
 For citations please refer to: https://tddft.org/programs/libxc/

 This ORCA versions uses:
   CBLAS   interface :  Fast vector & matrix operations
   LAPACKE interface :  Fast linear algebra routines
   Shared memory     :  Shared parallel matrices


================================================================================

cite the ECPs for W  [Def2-ECP] as follows:
Ce-Yb(ecp-28): M. Dolg, H. Stoll, H.Preuss, J. Chem. Phys., 1989, 90, 1730-1734.
Y-Cd(ecp-28), Hf-Hg(ecp-46): D. Andrae,U. Haeussermann, M. Dolg, H. Stoll, H. Preuss, Theor. Chim. Acta, 1990, 77, 123-141.
In-Sb(ecp-28), Tl-Bi(ecp-46): B. Metz, H. Stoll, M. Dolg, J. Chem. Phys., 2000, 113, 2563-2569.
Te-Xe(ecp-28), Po-Rn(ecp-46): K. A. Peterson, D. Figgen, E. Goll, H. Stoll, M. Dolg, J. Chem. Phys., 2003, 119, 11113-11123.
Rb(ecp-28), Cs(ecp-46): T. Leininger, A. Nicklass, W. Kuechle, H. Stoll, M. Dolg, A. Bergner, Chem. Phys. Lett., 1996, 255, 274-280.
Sr(ecp-28), Ba(ecp-46): M. Kaupp, P. V. Schleyer, H. Stoll and H. Preuss, J. Chem. Phys., 1991, 94, 1360-1366.
La(ecp-46): M. Dolg, H. Stoll, A. Savin, H. Preuss, Theor. Chim. Acta, 1989, 75, 173-194.
Lu(ecp-28): X. Cao, M. Dolg, J. Chem. Phys., 2001, 115, 7348-7355.

ECP parameters for W  [Def2-ECP] have been obtained from:
TURBOMOLE (7.0.2)

----- Orbital basis set information -----
Your calculation utilizes the basis: def2-SVP
   F. Weigend and R. Ahlrichs, Phys. Chem. Chem. Phys. 7, 3297 (2005).

----- AuxJ basis set information -----
Your calculation utilizes the auxiliary basis: def2/J
   F. Weigend, Phys. Chem. Chem. Phys. 8, 1057 (2006).

================================================================================
                                        WARNINGS
                       Please study these warnings very carefully!
================================================================================


WARNING: your system is open-shell and RHF/RKS was chosen
  ===> : WILL SWITCH to UHF/UKS


WARNING: Geometry Optimization
  ===> : Switching off AutoStart
         For restart on a previous wavefunction, please use MOREAD

INFO   : the flag for use of the SHARK integral package has been found!

================================================================================
                                       INPUT FILE
================================================================================
NAME = WCO6_anion.inp
|  1> !B3LYP def2-SVP OPT FREQ

|  2> 

|  3> * xyz -1 2

|  4> W         -1.37621        2.56722        0.10711

|  5> C          0.70839        2.53117        0.30993

|  6> C         -1.33834        4.66140        0.07376

|  7> C         -3.46098        2.60316       -0.09572

|  8> C         -1.41502        0.47296        0.14051

|  9> C         -1.57994        2.60535        2.19168

| 10> C         -1.17198        2.52910       -1.97739

| 11> O         -1.68985        2.62619        3.31419

| 12> O         -1.43573       -0.65466        0.15820

| 13> O         -1.31832        5.78914        0.05603

| 14> O         -1.06136        2.50831       -3.09969

| 15> O         -4.58356        2.62277       -0.20455

| 16> O          1.83095        2.51149        0.41866

| 17> **                         ****END OF INPUT****
================================================================================

                       *****************************
                       * Geometry Optimization Run *
                       *****************************

Geometry optimization settings:
Update method            Update   .... BFGS
Choice of coordinates    CoordSys .... Z-matrix Internals
Initial Hessian          InHess   .... Almoef's Model

Convergence Tolerances:
Energy Change            TolE     ....  5.0000e-06 Eh
Max. Gradient            TolMAXG  ....  3.0000e-04 Eh/bohr
RMS Gradient             TolRMSG  ....  1.0000e-04 Eh/bohr
Max. Displacement        TolMAXD  ....  4.0000e-03 bohr
RMS Displacement         TolRMSD  ....  2.0000e-03 bohr
Strict Convergence                ....  False
------------------------------------------------------------------------------
                        ORCA OPTIMIZATION COORDINATE SETUP
------------------------------------------------------------------------------

The optimization will be done in new redundant internal coordinates
Making redundant internal coordinates   ...  (new redundants) done
Evaluating the initial hessian          ...  (Almloef) done
Evaluating the coordinates              ...  done
Calculating the B-matrix                .... done
Calculating the G-matrix                .... done
Diagonalizing the G-matrix              .... done
The first mode is                       ....    3
The number of degrees of freedom        ....   33

    -----------------------------------------------------------------
                    Redundant Internal Coordinates


    -----------------------------------------------------------------
         Definition                    Initial Value    Approx d2E/dq
    -----------------------------------------------------------------
      1. B(C   1,W   0)                  2.0948         0.109219   
      2. B(C   2,W   0)                  2.0948         0.109206   
      3. B(C   3,W   0)                  2.0949         0.109152   
      4. B(C   4,W   0)                  2.0949         0.109166   
      5. B(C   5,W   0)                  2.0948         0.109181   
      6. B(C   6,W   0)                  2.0948         0.109190   
      7. B(O   7,C   5)                  1.1281         1.464762   
      8. B(O   8,C   4)                  1.1279         1.465417   
      9. B(O   9,C   2)                  1.1281         1.464835   
     10. B(O  10,C   6)                  1.1279         1.465518   
     11. B(O  11,C   3)                  1.1280         1.465070   
     12. B(O  12,C   1)                  1.1280         1.465222   
     13. A(C   4,W   0,C   5)           90.0303         0.265702   
     14. A(C   3,W   0,C   5)           89.9571         0.265697   
     15. A(C   2,W   0,C   3)           89.9598         0.265706   
     16. A(C   1,W   0,C   6)           89.9434         0.265725   
     17. A(C   2,W   0,C   6)           90.0337         0.265720   
     18. A(C   3,W   0,C   6)           90.0567         0.265700   
     19. A(C   4,W   0,C   6)           89.9702         0.265705   
     20. A(C   3,W   0,C   4)           90.0148         0.265691   
     21. A(C   1,W   0,C   2)           90.0433         0.265730   
     22. A(C   1,W   0,C   5)           90.0428         0.265721   
     23. A(C   1,W   0,C   4)           89.9821         0.265716   
     24. A(C   2,W   0,C   5)           89.9659         0.265716   
     25. L(W   0,C   1,O  12,C   6, 1) 179.9750         0.386553   
     26. L(W   0,C   1,O  12,C   6, 2) 180.0186         0.386553   
     27. L(W   0,C   2,O   9,C   3, 2) 179.9810         0.386527   
     28. L(W   0,C   2,O   9,C   3, 1) 179.9823         0.386527   
     29. L(W   0,C   3,O  11,C   5, 2) 179.9820         0.386504   
     30. L(W   0,C   3,O  11,C   5, 1) 179.9802         0.386504   
     31. L(W   0,C   4,O   8,C   6, 1) 179.9842         0.386529   
     32. L(W   0,C   4,O   8,C   6, 2) 179.9887         0.386529   
     33. L(W   0,C   5,O   7,C   3, 2) 180.0218         0.386508   
     34. L(W   0,C   5,O   7,C   3, 1) 179.9894         0.386508   
     35. L(W   0,C   6,O  10,C   1, 2) 179.9818         0.386548   
     36. L(W   0,C   6,O  10,C   1, 1) 179.9663         0.386548   
    -----------------------------------------------------------------

Number of atoms                         .... 13
Number of degrees of freedom            .... 36

         *************************************************************
         *                GEOMETRY OPTIMIZATION CYCLE   1            *
         *************************************************************
---------------------------------
CARTESIAN COORDINATES (ANGSTROEM)
---------------------------------
  W     -1.376210    2.567220    0.107110
  C      0.708390    2.531170    0.309930
  C     -1.338340    4.661400    0.073760
  C     -3.460980    2.603160   -0.095720
  C     -1.415020    0.472960    0.140510
  C     -1.579940    2.605350    2.191680
  C     -1.171980    2.529100   -1.977390
  O     -1.689850    2.626190    3.314190
  O     -1.435730   -0.654660    0.158200
  O     -1.318320    5.789140    0.056030
  O     -1.061360    2.508310   -3.099690
  O     -4.583560    2.622770   -0.204550
  O      1.830950    2.511490    0.418660

----------------------------
CARTESIAN COORDINATES (A.U.)
----------------------------
  NO LB      ZA    FRAG     MASS         X           Y           Z
   0 W    14.0000*   0   183.850   -2.600660    4.851343    0.202409
   1 C     6.0000    0    12.011    1.338663    4.783218    0.585683
   2 C     6.0000    0    12.011   -2.529096    8.808769    0.139386
   3 C     6.0000    0    12.011   -6.540304    4.919259   -0.180885
   4 C     6.0000    0    12.011   -2.674000    0.893765    0.265525
   5 C     6.0000    0    12.011   -2.985654    4.923398    4.141675
   6 C     6.0000    0    12.011   -2.214721    4.779306   -3.736726
   7 O     8.0000    0    15.999   -3.193354    4.962780    6.262911
   8 O     8.0000    0    15.999   -2.713137   -1.237128    0.298955
   9 O     8.0000    0    15.999   -2.491264   10.939889    0.105881
  10 O     8.0000    0    15.999   -2.005680    4.740019   -5.857565
  11 O     8.0000    0    15.999   -8.661673    4.956317   -0.386543
  12 O     8.0000    0    15.999    3.459994    4.746028    0.791153
* core charge reduced due to ECP

--------------------------------
INTERNAL COORDINATES (ANGSTROEM)
--------------------------------
 W      0   0   0     0.000000000000     0.00000000     0.00000000
 C      1   0   0     2.094753616753     0.00000000     0.00000000
 C      1   2   0     2.094787872745    90.04329025     0.00000000
 C      1   2   3     2.094921870954   179.99690674   182.29116734
 C      1   2   3     2.094885849802    89.98212640   180.00380390
 C      1   2   3     2.094848895434    90.04279574   270.03411615
 C      1   2   3     2.094827744064    89.94341391    90.03361590
 O      6   1   2     1.128070571285   179.98128769   124.50532445
 O      5   1   2     1.127948892725   179.98232997   296.87930288
 O      3   1   2     1.128057029099   179.97774731   217.10318201
 O      7   1   2     1.127930094687   179.96392626    20.91481758
 O      4   1   2     1.128013465079   179.97643751   120.50657057
 O      2   1   3     1.127985136826   179.97178934   242.17983125

---------------------------
INTERNAL COORDINATES (A.U.)
---------------------------
 W      0   0   0     0.000000000000     0.00000000     0.00000000
 C      1   0   0     3.958510653704     0.00000000     0.00000000
 C      1   2   0     3.958575388148    90.04329025     0.00000000
 C      1   2   3     3.958828608064   179.99690674   182.29116734
 C      1   2   3     3.958760537952    89.98212640   180.00380390
 C      1   2   3     3.958690704317    90.04279574   270.03411615
 C      1   2   3     3.958650734021    89.94341391    90.03361590
 O      6   1   2     2.131744439465   179.98128769   124.50532445
 O      5   1   2     2.131514500310   179.98232997   296.87930288
 O      3   1   2     2.131718848442   179.97774731   217.10318201
 O      7   1   2     2.131478977166   179.96392626    20.91481758
 O      4   1   2     2.131636524375   179.97643751   120.50657057
 O      2   1   3     2.131582991735   179.97178934   242.17983125

---------------------
BASIS SET INFORMATION
---------------------
There are 3 groups of distinct atoms

 Group   1 Type W   : 7s6p5d1f contracted to 6s3p2d1f pattern {211111/411/41/1}
 Group   2 Type C   : 7s4p1d contracted to 3s2p1d pattern {511/31/1}
 Group   3 Type O   : 7s4p1d contracted to 3s2p1d pattern {511/31/1}

Atom   0W    basis set group =>   1
Atom   1C    basis set group =>   2
Atom   2C    basis set group =>   2
Atom   3C    basis set group =>   2
Atom   4C    basis set group =>   2
Atom   5C    basis set group =>   2
Atom   6C    basis set group =>   2
Atom   7O    basis set group =>   3
Atom   8O    basis set group =>   3
Atom   9O    basis set group =>   3
Atom  10O    basis set group =>   3
Atom  11O    basis set group =>   3
Atom  12O    basis set group =>   3
---------------------------------
AUXILIARY/J BASIS SET INFORMATION
---------------------------------
There are 3 groups of distinct atoms

 Group   1 Type W   : 11s5p5d3f3g contracted to 8s5p5d2f3g pattern {41111111/11111/11111/21/111}
 Group   2 Type C   : 12s5p4d2f1g contracted to 6s4p3d1f1g pattern {711111/2111/211/2/1}
 Group   3 Type O   : 12s5p4d2f1g contracted to 6s4p3d1f1g pattern {711111/2111/211/2/1}

Atom   0W    basis set group =>   1
Atom   1C    basis set group =>   2
Atom   2C    basis set group =>   2
Atom   3C    basis set group =>   2
Atom   4C    basis set group =>   2
Atom   5C    basis set group =>   2
Atom   6C    basis set group =>   2
Atom   7O    basis set group =>   3
Atom   8O    basis set group =>   3
Atom   9O    basis set group =>   3
Atom  10O    basis set group =>   3
Atom  11O    basis set group =>   3
Atom  12O    basis set group =>   3
-------------------------
ECP PARAMETER INFORMATION
-------------------------

 Group 1, Type W  ECP Def2-ECP (replacing 60 core electrons, lmax=3)

Atom   0W    ECP group =>   1

------------------------------------------------------------------------------
                           ORCA GTO INTEGRAL CALCULATION
                           -- RI-GTO INTEGRALS CHOSEN --
------------------------------------------------------------------------------
------------------------------------------------------------------------------
                   ___                                                        
                  /   \      - P O W E R E D   B Y -                         
                 /     \                                                     
                 |  |  |   _    _      __       _____    __    __             
                 |  |  |  | |  | |    /  \     |  _  \  |  |  /  |          
                  \  \/   | |  | |   /    \    | | | |  |  | /  /          
                 / \  \   | |__| |  /  /\  \   | |_| |  |  |/  /          
                |  |  |   |  __  | /  /__\  \  |    /   |      \           
                |  |  |   | |  | | |   __   |  |    \   |  |\   \          
                \     /   | |  | | |  |  |  |  | |\  \  |  | \   \       
                 \___/    |_|  |_| |__|  |__|  |_| \__\ |__|  \__/        
                                                                              
                      - O R C A' S   B I G   F R I E N D -                    
                                      &                                       
                       - I N T E G R A L  F E E D E R -                       
                                                                              
 v1 FN, 2020, v2 2021                                                         
------------------------------------------------------------------------------


Reading SHARK input file WCO6_anion.SHARKINP.tmp ... ok
----------------------
SHARK INTEGRAL PACKAGE
----------------------

Number of atoms                             ...     13
Number of basis functions                   ...    200
Number of shells                            ...     84
Maximum angular momentum                    ...      3
Integral batch strategy                     ... SHARK/LIBINT Hybrid
RI-J (if used) integral strategy            ... SPLIT-RIJ (Revised 2003 algorithm where possible)
Printlevel                                  ...      1
Contraction scheme used                     ... SEGMENTED contraction
Coulomb Range Separation                    ... NOT USED
Exchange Range Separation                   ... NOT USED
Finite Nucleus Model                        ... NOT USED
Auxiliary Coulomb fitting basis             ... AVAILABLE
   # of basis functions in Aux-J            ...    677
   # of shells in Aux-J                     ...    203
   Maximum angular momentum in Aux-J        ...      4
Auxiliary J/K fitting basis                 ... NOT available
Auxiliary Correlation fitting basis         ... NOT available
Auxiliary 'external' fitting basis          ... NOT available
Integral threshold                          ...     2.500000e-11
Primitive cut-off                           ...     2.500000e-12
Primitive pair pre-selection threshold      ...     2.500000e-12

Calculating pre-screening integrals         ... done (  0.0 sec) Dimension = 84
Organizing shell pair data                  ... done (  0.0 sec)
Shell pair information
Total number of shell pairs                 ...      3570
Shell pairs after pre-screening             ...      2979
Total number of primitive shell pairs       ...     13535
Primitive shell pairs kept                  ...      7814
          la=0 lb=0:    708 shell pairs
          la=1 lb=0:    990 shell pairs
          la=1 lb=1:    351 shell pairs
          la=2 lb=0:    432 shell pairs
          la=2 lb=1:    330 shell pairs
          la=2 lb=2:     84 shell pairs
          la=3 lb=0:     42 shell pairs
          la=3 lb=1:     27 shell pairs
          la=3 lb=2:     14 shell pairs
          la=3 lb=3:      1 shell pairs

Calculating one electron integrals          ... done (  0.0 sec)
Calculating ECP integrals                   ... done (  0.2 sec)
Calculating RI/J V-Matrix + Cholesky decomp.... done (  0.0 sec)
Calculating Nuclear repulsion               ... done (  0.0 sec) ENN=    755.755504036229 Eh

SHARK setup successfully completed in   0.3 seconds

Maximum memory used throughout the entire GTOINT-calculation: 40.9 MB
-------------------------------------------------------------------------------
                                 ORCA SCF
-------------------------------------------------------------------------------

------------
SCF SETTINGS
------------
Hamiltonian:
 Density Functional     Method          .... DFT(GTOs)
 Exchange Functional    Exchange        .... B88
   X-Alpha parameter    XAlpha          ....  0.666667
   Becke's b parameter  XBeta           ....  0.004200
 Correlation Functional Correlation     .... LYP
 LDA part of GGA corr.  LDAOpt          .... VWN-5
 Gradients option       PostSCFGGA      .... off
 Hybrid DFT is turned on
   Fraction HF Exchange ScalHFX         ....  0.200000
   Scaling of DF-GGA-X  ScalDFX         ....  0.720000
   Scaling of DF-GGA-C  ScalDFC         ....  0.810000
   Scaling of DF-LDA-C  ScalLDAC        ....  1.000000
   Perturbative correction              ....  0.000000
   Density functional embedding theory  .... OFF
   NL short-range parameter             ....  4.800000
 RI-approximation to the Coulomb term is turned on
   Number of AuxJ basis functions       .... 677
   RIJ-COSX (HFX calculated with COS-X)).... on


General Settings:
 Integral files         IntName         .... WCO6_anion
 Hartree-Fock type      HFTyp           .... UHF
 Total Charge           Charge          ....   -1
 Multiplicity           Mult            ....    2
 Number of Electrons    NEL             ....   99
 Basis Dimension        Dim             ....  200
 Nuclear Repulsion      ENuc            ....    755.7555040362 Eh

Convergence Acceleration:
 DIIS                   CNVDIIS         .... on
   Start iteration      DIISMaxIt       ....    12
   Startup error        DIISStart       ....  0.200000
   # of expansion vecs  DIISMaxEq       ....     5
   Bias factor          DIISBfac        ....   1.050
   Max. coefficient     DIISMaxC        ....  10.000
 Trust-Rad. Augm. Hess. CNVTRAH         .... auto
   Auto Start mean grad. ratio tolernc. ....  1.125000
   Auto Start start iteration           ....    20
   Auto Start num. interpolation iter.  ....    10
   Max. Number of Micro iterations      ....    16
   Max. Number of Macro iterations      .... Maxiter - #DIIS iter
   Number of Davidson start vectors     ....     2
   Converg. threshold I  (grad. norm)   ....   1.000e-05
   Converg. threshold II (energy diff.) ....   1.000e-08
   Grad. Scal. Fac. for Micro threshold ....   0.100
   Minimum threshold for Micro iter.    ....   0.010
   NR start threshold (gradient norm)   ....   0.001
   Initial trust radius                 ....   0.400
   Minimum AH scaling param. (alpha)    ....   1.000
   Maximum AH scaling param. (alpha)    .... 1000.000
   Orbital update algorithm             .... Taylor
   White noise on init. David. guess    .... on
   Maximum white noise                  ....   0.010
   Quad. conv. algorithm                .... NR
 SOSCF                  CNVSOSCF        .... off
 Level Shifting         CNVShift        .... on
   Level shift para.    LevelShift      ....    0.2500
   Turn off err/grad.   ShiftErr        ....    0.0010
 Zerner damping         CNVZerner       .... off
 Static damping         CNVDamp         .... on
   Fraction old density DampFac         ....    0.7000
   Max. Damping (<1)    DampMax         ....    0.9800
   Min. Damping (>=0)   DampMin         ....    0.0000
   Turn off err/grad.   DampErr         ....    0.1000
 Fernandez-Rico         CNVRico         .... off

SCF Procedure:
 Maximum # iterations   MaxIter         ....   125
 SCF integral mode      SCFMode         .... Direct
   Integral package                     .... SHARK and LIBINT hybrid scheme
 Reset frequency        DirectResetFreq ....    20
 Integral Threshold     Thresh          ....  2.500e-11 Eh
 Primitive CutOff       TCut            ....  2.500e-12 Eh

Convergence Tolerance:
 Convergence Check Mode ConvCheckMode   .... Total+1el-Energy
 Convergence forced     ConvForced      .... 0
 Energy Change          TolE            ....  1.000e-08 Eh
 1-El. energy change                    ....  1.000e-05 Eh
 DIIS Error             TolErr          ....  5.000e-07


Diagonalization of the overlap matrix:
Smallest eigenvalue                        ... 1.328e-03
Time for diagonalization                   ...    0.006 sec
Threshold for overlap eigenvalues          ... 1.000e-08
Number of eigenvalues below threshold      ... 0
Time for construction of square roots      ...    0.005 sec
Total time needed                          ...    0.011 sec

Time for model grid setup =    0.160 sec

------------------------------
INITIAL GUESS: MODEL POTENTIAL
------------------------------
Loading Hartree-Fock densities                     ... done
  calling C:\orca_5_0_4\orca WCO6_anion_atom74.inp > WCO6_anion_atom74.out in order to generate an atomic fitting density for atom 0 (W  with ECP) on-the-fly... 
    atom 0 (W ), assumed electronic state with S=5: 1s2 2s2 2p6 3s2 3p6 4s2 3d10 4p6 5s2 4d10 5p6 6s2 4f14 5d4           ... done
Calculating cut-offs                               ... done
Initializing the effective Hamiltonian             ... done
Setting up the integral package (SHARK)            ... done
Starting the Coulomb interaction                   ... done (   0.1 sec)
Reading the grid                                   ... done
Mapping shells                                     ... done
Starting the XC term evaluation                    ... done (   0.2 sec)
  promolecular density results
     # of electrons  =    158.004736343
     EX              =   -406.132998563
     EC              =     -6.997099042
     EX+EC           =   -413.130097604
Transforming the Hamiltonian                       ... done (   0.0 sec)
Diagonalizing the Hamiltonian                      ... done (   0.0 sec)
Back transforming the eigenvectors                 ... done (   0.0 sec)
Now organizing SCF variables                       ... done
                      ------------------
                      INITIAL GUESS DONE (   1.4 sec)
                      ------------------
-------------------
DFT GRID GENERATION
-------------------

General Integration Accuracy     IntAcc      ... 4.388
Radial Grid Type                 RadialGrid  ... OptM3 with GC (2021)
Angular Grid (max. ang.)         AngularGrid ... 4 (Lebedev-302)
Angular grid pruning method      GridPruning ... 4 (adaptive)
Weight generation scheme         WeightScheme... Becke
Basis function cutoff            BFCut       ... 1.0000e-11
Integration weight cutoff        WCut        ... 1.0000e-14
Angular grids for H and He will be reduced by one unit
Partially contracted basis set               ... off
Rotationally invariant grid construction     ... off

Total number of grid points                  ...    84123
Total number of batches                      ...     1323
Average number of points per batch           ...       63
Average number of grid points per atom       ...     6471
Time for grid setup =    0.771 sec

--------------------
COSX GRID GENERATION
--------------------

GRIDX 1
-------
General Integration Accuracy     IntAcc      ... 3.816
Radial Grid Type                 RadialGrid  ... OptM3 with GC (2021)
Angular Grid (max. ang.)         AngularGrid ... 1 (Lebedev-50)
Angular grid pruning method      GridPruning ... 4 (adaptive)
Weight generation scheme         WeightScheme... Becke
Basis function cutoff            BFCut       ... 1.0000e-11
Integration weight cutoff        WCut        ... 1.0000e-14
Angular grids for H and He will be reduced by one unit
Partially contracted basis set               ... on
Rotationally invariant grid construction     ... off

Total number of grid points                  ...    10314
Total number of batches                      ...      169
Average number of points per batch           ...       61
Average number of grid points per atom       ...      793
UseSFitting                                  ... on

GRIDX 2
-------
General Integration Accuracy     IntAcc      ... 4.020
Radial Grid Type                 RadialGrid  ... OptM3 with GC (2021)
Angular Grid (max. ang.)         AngularGrid ... 2 (Lebedev-110)
Angular grid pruning method      GridPruning ... 4 (adaptive)
Weight generation scheme         WeightScheme... Becke
Basis function cutoff            BFCut       ... 1.0000e-11
Integration weight cutoff        WCut        ... 1.0000e-14
Angular grids for H and He will be reduced by one unit
Partially contracted basis set               ... on
Rotationally invariant grid construction     ... off

Total number of grid points                  ...    25675
Total number of batches                      ...      405
Average number of points per batch           ...       63
Average number of grid points per atom       ...     1975
UseSFitting                                  ... on

GRIDX 3
-------
General Integration Accuracy     IntAcc      ... 4.338
Radial Grid Type                 RadialGrid  ... OptM3 with GC (2021)
Angular Grid (max. ang.)         AngularGrid ... 3 (Lebedev-194)
Angular grid pruning method      GridPruning ... 4 (adaptive)
Weight generation scheme         WeightScheme... Becke
Basis function cutoff            BFCut       ... 1.0000e-11
Integration weight cutoff        WCut        ... 1.0000e-14
Angular grids for H and He will be reduced by one unit
Partially contracted basis set               ... on
Rotationally invariant grid construction     ... off

Total number of grid points                  ...    55495
Total number of batches                      ...      875
Average number of points per batch           ...       63
Average number of grid points per atom       ...     4269
UseSFitting                                  ... on

Time for X-Grid setup             =    1.089 sec

--------------
SCF ITERATIONS
--------------
ITER       Energy         Delta-E        Max-DP      RMS-DP      [F,P]     Damp
               ***  Starting incremental Fock matrix formation  ***
  0   -742.5546026519   0.000000000000 1.38764856  0.00867618  0.4296173 0.7000
  1   -744.6825713555  -2.127968703605 0.78753612  0.00469482  0.1484271 0.7000
                               ***Turning on DIIS***
  2   -745.1386657001  -0.456094344569 0.68648742  0.00637365  0.0644423 0.0000
  3   -745.8756559780  -0.736990277861 0.30222893  0.00165726  0.1454517 0.7000
  4   -746.0555331605  -0.179877182537 0.38914775  0.00192799  0.1048220 0.7000
  5   -746.1715640572  -0.116030896710 1.27717941  0.00610686  0.0728558 0.0000
  6   -746.3372438138  -0.165679756607 0.27378152  0.00135932  0.0060945 0.0000
  7   -746.3424488850  -0.005205071137 0.17643925  0.00086422  0.0059765 0.0000
  8   -746.3454742569  -0.003025371939 0.12408956  0.00064523  0.0038623 0.0000
  9   -746.3471381916  -0.001663934660 0.08482742  0.00047245  0.0029455 0.0000
 10   -746.3480794869  -0.000941295349 0.04888989  0.00029182  0.0021352 0.0000
 11   -746.3485133613  -0.000433874367 0.03615266  0.00023242  0.0015122 0.0000
 12   -746.3487811936  -0.000267832303 0.02305851  0.00015822  0.0010993 0.0000
 13   -746.3489060697  -0.000124876138 0.03834576  0.00029142  0.0007207 0.0000
               *** Restarting incremental Fock matrix formation ***
                                   *** Resetting DIIS ***
 14   -746.3490729717  -0.000166901983 0.00217917  0.00003420  0.0003757 0.0000
 15   -746.3490441507   0.000028821006 0.00079271  0.00001247  0.0011372 0.0000
 16   -746.3490736874  -0.000029536733 0.00090088  0.00001201  0.0004286 0.0000
 17   -746.3490783674  -0.000004679939 0.00032823  0.00000528  0.0001154 0.0000
 18   -746.3490786139  -0.000000246486 0.00018555  0.00000400  0.0000654 0.0000
 19   -746.3490788178  -0.000000203952 0.00008648  0.00000525  0.0000128 0.0000
 20   -746.3490789981  -0.000000180272 0.00006557  0.00000402  0.0000091 0.0000
 21   -746.3490791406  -0.000000142493 0.00001194  0.00000073  0.0000097 0.0000
 22   -746.3490791661  -0.000000025514 0.00000367  0.00000012  0.0000098 0.0000
                 **** Energy Check signals convergence ****

               *****************************************************
               *                     SUCCESS                       *
               *           SCF CONVERGED AFTER  23 CYCLES          *
               *****************************************************

Old exchange energy                            =    -17.430609781 Eh
New exchange energy                            =    -17.430579541 Eh
Exchange energy change after final integration =      0.000030240 Eh
Total energy after final integration           =   -746.349048923 Eh
Final COS-X integration done in                =    12.291 sec

----------------
TOTAL SCF ENERGY
----------------

Total Energy       :         -746.34904892 Eh          -20309.19012 eV

Components:
Nuclear Repulsion  :          755.75550404 Eh           20565.15278 eV
Electronic Energy  :        -1502.10455296 Eh          -40874.34290 eV
One Electron Energy:        -2559.52270450 Eh          -69648.15363 eV
Two Electron Energy:         1057.41815154 Eh           28773.81074 eV
Max COSX asymmetry :            0.00000102 Eh               0.00003 eV

Virial components:
Potential Energy   :        -1444.60086520 Eh          -39309.58800 eV
Kinetic Energy     :          698.25181628 Eh           19000.39788 eV
Virial Ratio       :            2.06888236


DFT components:
N(Alpha)           :       50.000069557361 electrons
N(Beta)            :       49.000020418153 electrons
N(Total)           :       99.000089975513 electrons
E(X)               :      -69.771041249733 Eh       
E(C)               :       -4.082344841903 Eh       
E(XC)              :      -73.853386091636 Eh       
DFET-embed. en.    :        0.000000000000 Eh       

---------------
SCF CONVERGENCE
---------------

  Last Energy change         ...    2.5523e-09  Tolerance :   1.0000e-08
  Last MAX-Density change    ...    0.0000e+00  Tolerance :   1.0000e-07
  Last RMS-Density change    ...    0.0000e+00  Tolerance :   5.0000e-09
  Last DIIS Error            ...    9.8043e-06  Tolerance :   5.0000e-07

             **** THE GBW FILE WAS UPDATED (WCO6_anion.gbw) ****
             **** DENSITY WCO6_anion.scfp WAS UPDATED ****
             **** ENERGY FILE WAS UPDATED (WCO6_anion.en.tmp) ****
----------------------
UHF SPIN CONTAMINATION
----------------------

Warning: in a DFT calculation there is little theoretical justification to 
         calculate <S**2> as in Hartree-Fock theory. We will do it anyways
         but you should keep in mind that the values have only limited relevance

Expectation value of <S**2>     :     0.758691
Ideal value S*(S+1) for S=0.5   :     0.750000
Deviation                       :     0.008691

             **** THE GBW FILE WAS UPDATED (WCO6_anion.gbw) ****
             **** DENSITY WCO6_anion.scfp WAS UPDATED ****
----------------
ORBITAL ENERGIES
----------------
                 SPIN UP ORBITALS
  NO   OCC          E(Eh)            E(eV) 
   0   1.0000     -19.070234      -518.9275 
   1   1.0000     -19.070195      -518.9264 
   2   1.0000     -19.042707      -518.1784 
   3   1.0000     -19.042659      -518.1771 
   4   1.0000     -19.042657      -518.1770 
   5   1.0000     -19.042604      -518.1756 
   6   1.0000     -10.142147      -275.9818 
   7   1.0000     -10.142072      -275.9798 
   8   1.0000     -10.119080      -275.3542 
   9   1.0000     -10.118914      -275.3496 
  10   1.0000     -10.118912      -275.3496 
  11   1.0000     -10.118899      -275.3492 
  12   1.0000      -2.778615       -75.6100 
  13   1.0000      -1.428747       -38.8782 
  14   1.0000      -1.426850       -38.8266 
  15   1.0000      -1.426817       -38.8257 
  16   1.0000      -0.990658       -26.9572 
  17   1.0000      -0.990501       -26.9529 
  18   1.0000      -0.967408       -26.3245 
  19   1.0000      -0.967014       -26.3138 
  20   1.0000      -0.967007       -26.3136 
  21   1.0000      -0.966847       -26.3092 
  22   1.0000      -0.432667       -11.7735 
  23   1.0000      -0.412069       -11.2130 
  24   1.0000      -0.407459       -11.0875 
  25   1.0000      -0.396432       -10.7875 
  26   1.0000      -0.392290       -10.6748 
  27   1.0000      -0.392267       -10.6741 
  28   1.0000      -0.341853        -9.3023 
  29   1.0000      -0.326391        -8.8815 
  30   1.0000      -0.326378        -8.8812 
  31   1.0000      -0.321835        -8.7576 
  32   1.0000      -0.321829        -8.7574 
  33   1.0000      -0.311201        -8.4682 
  34   1.0000      -0.310844        -8.4585 
  35   1.0000      -0.305674        -8.3178 
  36   1.0000      -0.303752        -8.2655 
  37   1.0000      -0.303744        -8.2653 
  38   1.0000      -0.303198        -8.2504 
  39   1.0000      -0.300843        -8.1863 
  40   1.0000      -0.300791        -8.1849 
  41   1.0000      -0.296536        -8.0692 
  42   1.0000      -0.293137        -7.9767 
  43   1.0000      -0.250532        -6.8173 
  44   1.0000      -0.237376        -6.4593 
  45   1.0000      -0.237277        -6.4566 
  46   1.0000      -0.070072        -1.9068 
  47   1.0000      -0.070015        -1.9052 
  48   1.0000      -0.061786        -1.6813 
  49   1.0000       0.066501         1.8096 
  50   0.0000       0.104176         2.8348 
  51   0.0000       0.104180         2.8349 
  52   0.0000       0.125171         3.4061 
  53   0.0000       0.134162         3.6507 
  54   0.0000       0.134297         3.6544 
  55   0.0000       0.169214         4.6045 
  56   0.0000       0.169222         4.6048 
  57   0.0000       0.172526         4.6947 
  58   0.0000       0.188076         5.1178 
  59   0.0000       0.197288         5.3685 
  60   0.0000       0.200956         5.4683 
  61   0.0000       0.201030         5.4703 
  62   0.0000       0.219100         5.9620 
  63   0.0000       0.219103         5.9621 
  64   0.0000       0.227697         6.1960 
  65   0.0000       0.251404         6.8410 
  66   0.0000       0.256132         6.9697 
  67   0.0000       0.419465        11.4142 
  68   0.0000       0.423625        11.5274 
  69   0.0000       0.462329        12.5806 
  70   0.0000       0.505515        13.7558 
  71   0.0000       0.515066        14.0157 
  72   0.0000       0.515147        14.0179 
  73   0.0000       0.573610        15.6087 
  74   0.0000       0.573703        15.6113 
  75   0.0000       0.582048        15.8383 
  76   0.0000       0.607978        16.5439 
  77   0.0000       0.610730        16.6188 
  78   0.0000       0.614726        16.7275 
  79   0.0000       0.614949        16.7336 
  80   0.0000       0.625254        17.0140 
  81   0.0000       0.626639        17.0517 
  82   0.0000       0.677785        18.4435 
  83   0.0000       0.677810        18.4441 
  84   0.0000       0.678770        18.4703 
  85   0.0000       0.725645        19.7458 
  86   0.0000       0.725767        19.7491 
  87   0.0000       0.729557        19.8522 
  88   0.0000       0.741660        20.1816 
  89   0.0000       0.805763        21.9259 
  90   0.0000       0.805771        21.9261 
  91   0.0000       0.813572        22.1384 
  92   0.0000       0.843128        22.9427 
  93   0.0000       0.855862        23.2892 
  94   0.0000       0.855994        23.2928 
  95   0.0000       0.885472        24.0949 
  96   0.0000       0.887497        24.1500 
  97   0.0000       0.892975        24.2991 
  98   0.0000       0.892991        24.2995 
  99   0.0000       0.902650        24.5623 
 100   0.0000       0.906445        24.6656 
 101   0.0000       0.966030        26.2870 
 102   0.0000       0.981648        26.7120 
 103   0.0000       0.981789        26.7158 
 104   0.0000       0.984950        26.8018 
 105   0.0000       0.997961        27.1559 
 106   0.0000       1.078965        29.3601 
 107   0.0000       1.078975        29.3604 
 108   0.0000       1.082136        29.4464 
 109   0.0000       1.124186        30.5907 
 110   0.0000       1.169089        31.8125 
 111   0.0000       1.194094        32.4930 
 112   0.0000       1.194139        32.4942 
 113   0.0000       1.197871        32.5957 
 114   0.0000       1.198747        32.6196 
 115   0.0000       1.198802        32.6211 
 116   0.0000       1.208504        32.8851 
 117   0.0000       1.232256        33.5314 
 118   0.0000       1.232291        33.5323 
 119   0.0000       1.235046        33.6073 
 120   0.0000       1.291944        35.1556 
 121   0.0000       1.291958        35.1560 
 122   0.0000       1.300629        35.3919 
 123   0.0000       1.359552        36.9953 
 124   0.0000       1.364916        37.1412 
 125   0.0000       1.365668        37.1617 
 126   0.0000       1.387992        37.7692 
 127   0.0000       1.393371        37.9156 
 128   0.0000       1.604183        43.6520 
 129   0.0000       1.614180        43.9241 
 130   0.0000       1.664584        45.2956 
 131   0.0000       1.677496        45.6470 
 132   0.0000       1.677714        45.6529 
 133   0.0000       1.760886        47.9161 
 134   0.0000       1.770562        48.1794 
 135   0.0000       1.772180        48.2235 
 136   0.0000       1.772437        48.2305 
 137   0.0000       1.781596        48.4797 
 138   0.0000       1.786141        48.6034 
 139   0.0000       1.786157        48.6038 
 140   0.0000       1.786692        48.6184 
 141   0.0000       1.795830        48.8670 
 142   0.0000       1.795910        48.8692 
 143   0.0000       1.797527        48.9132 
 144   0.0000       1.797570        48.9144 
 145   0.0000       1.800794        49.0021 
 146   0.0000       1.820819        49.5470 
 147   0.0000       1.842591        50.1394 
 148   0.0000       1.853737        50.4427 
 149   0.0000       1.853767        50.4436 
 150   0.0000       1.985849        54.0377 
 151   0.0000       1.986015        54.0422 
 152   0.0000       1.995518        54.3008 
 153   0.0000       2.012139        54.7531 
 154   0.0000       2.012603        54.7657 
 155   0.0000       2.015658        54.8489 
 156   0.0000       2.019455        54.9522 
 157   0.0000       2.020119        54.9702 
 158   0.0000       2.023097        55.0513 
 159   0.0000       2.094500        56.9942 
 160   0.0000       2.102992        57.2253 
 161   0.0000       2.358294        64.1724 
 162   0.0000       2.637630        71.7736 
 163   0.0000       2.651067        72.1392 
 164   0.0000       2.758277        75.0565 
 165   0.0000       2.759454        75.0886 
 166   0.0000       2.760910        75.1282 
 167   0.0000       2.762432        75.1696 
 168   0.0000       2.774566        75.4998 
 169   0.0000       2.777583        75.5819 
 170   0.0000       2.779858        75.6438 
 171   0.0000       2.779860        75.6438 
 172   0.0000       2.780084        75.6499 
 173   0.0000       2.781178        75.6797 
 174   0.0000       2.781186        75.6799 
 175   0.0000       2.781735        75.6949 
 176   0.0000       2.786471        75.8237 
 177   0.0000       3.169086        86.2352 
 178   0.0000       3.184901        86.6656 
 179   0.0000       3.185291        86.6762 
 180   0.0000       3.330640        90.6313 
 181   0.0000       3.330643        90.6314 
 182   0.0000       3.350339        91.1674 
 183   0.0000       3.351390        91.1960 
 184   0.0000       3.351395        91.1961 
 185   0.0000       3.354553        91.2820 
 186   0.0000       3.373416        91.7953 
 187   0.0000       3.373433        91.7958 
 188   0.0000       3.391586        92.2897 
 189   0.0000       3.394785        92.3768 
 190   0.0000       3.395002        92.3827 
 191   0.0000       3.395251        92.3895 
 192   0.0000       3.790179       103.1360 
 193   0.0000       3.808192       103.6262 
 194   0.0000       3.826522       104.1250 
 195   0.0000       3.872329       105.3714 
 196   0.0000       3.893625       105.9509 
 197   0.0000       3.893728       105.9537 
 198   0.0000      68.878164      1874.2701 
 199   0.0000     575.616811     15663.3297 

                 SPIN DOWN ORBITALS
  NO   OCC          E(Eh)            E(eV) 
   0   1.0000     -19.070473      -518.9340 
   1   1.0000     -19.070434      -518.9329 
   2   1.0000     -19.040156      -518.1090 
   3   1.0000     -19.040107      -518.1077 
   4   1.0000     -19.040106      -518.1076 
   5   1.0000     -19.040053      -518.1062 
   6   1.0000     -10.140721      -275.9430 
   7   1.0000     -10.140645      -275.9410 
   8   1.0000     -10.116660      -275.2883 
   9   1.0000     -10.116497      -275.2839 
  10   1.0000     -10.116495      -275.2838 
  11   1.0000     -10.116479      -275.2834 
  12   1.0000      -2.780938       -75.6732 
  13   1.0000      -1.431789       -38.9610 
  14   1.0000      -1.429561       -38.9003 
  15   1.0000      -1.429527       -38.8994 
  16   1.0000      -0.990983       -26.9660 
  17   1.0000      -0.990828       -26.9618 
  18   1.0000      -0.963006       -26.2047 
  19   1.0000      -0.962627       -26.1944 
  20   1.0000      -0.962620       -26.1942 
  21   1.0000      -0.962457       -26.1898 
  22   1.0000      -0.429195       -11.6790 
  23   1.0000      -0.411862       -11.2073 
  24   1.0000      -0.402530       -10.9534 
  25   1.0000      -0.389939       -10.6108 
  26   1.0000      -0.386085       -10.5059 
  27   1.0000      -0.386064       -10.5053 
  28   1.0000      -0.338695        -9.2164 
  29   1.0000      -0.325204        -8.8493 
  30   1.0000      -0.325200        -8.8492 
  31   1.0000      -0.322124        -8.7654 
  32   1.0000      -0.322123        -8.7654 
  33   1.0000      -0.308496        -8.3946 
  34   1.0000      -0.301005        -8.1908 
  35   1.0000      -0.298477        -8.1220 
  36   1.0000      -0.298424        -8.1205 
  37   1.0000      -0.296957        -8.0806 
  38   1.0000      -0.291663        -7.9366 
  39   1.0000      -0.290825        -7.9138 
  40   1.0000      -0.290370        -7.9014 
  41   1.0000      -0.290346        -7.9007 
  42   1.0000      -0.288199        -7.8423 
  43   1.0000      -0.244569        -6.6551 
  44   1.0000      -0.229967        -6.2577 
  45   1.0000      -0.229866        -6.2550 
  46   1.0000      -0.064813        -1.7636 
  47   1.0000      -0.064770        -1.7625 
  48   1.0000      -0.061181        -1.6648 
  49   0.0000       0.105216         2.8631 
  50   0.0000       0.105220         2.8632 
  51   0.0000       0.122069         3.3217 
  52   0.0000       0.137046         3.7292 
  53   0.0000       0.137178         3.7328 
  54   0.0000       0.152822         4.1585 
  55   0.0000       0.173849         4.7307 
  56   0.0000       0.183081         4.9819 
  57   0.0000       0.183090         4.9821 
  58   0.0000       0.192302         5.2328 
  59   0.0000       0.200188         5.4474 
  60   0.0000       0.201434         5.4813 
  61   0.0000       0.201510         5.4834 
  62   0.0000       0.227049         6.1783 
  63   0.0000       0.227050         6.1783 
  64   0.0000       0.228333         6.2132 
  65   0.0000       0.251425         6.8416 
  66   0.0000       0.258803         7.0424 
  67   0.0000       0.421906        11.4806 
  68   0.0000       0.425740        11.5850 
  69   0.0000       0.465124        12.6567 
  70   0.0000       0.505999        13.7689 
  71   0.0000       0.516715        14.0605 
  72   0.0000       0.516800        14.0628 
  73   0.0000       0.580493        15.7960 
  74   0.0000       0.580594        15.7988 
  75   0.0000       0.584655        15.9093 
  76   0.0000       0.613116        16.6837 
  77   0.0000       0.617758        16.8101 
  78   0.0000       0.617977        16.8160 
  79   0.0000       0.620665        16.8891 
  80   0.0000       0.628249        17.0955 
  81   0.0000       0.628558        17.1039 
  82   0.0000       0.679010        18.4768 
  83   0.0000       0.679041        18.4776 
  84   0.0000       0.689495        18.7621 
  85   0.0000       0.728766        19.8307 
  86   0.0000       0.728888        19.8341 
  87   0.0000       0.730017        19.8648 
  88   0.0000       0.742585        20.2068 
  89   0.0000       0.809946        22.0397 
  90   0.0000       0.809957        22.0401 
  91   0.0000       0.815203        22.1828 
  92   0.0000       0.844492        22.9798 
  93   0.0000       0.859509        23.3884 
  94   0.0000       0.859637        23.3919 
  95   0.0000       0.885987        24.1089 
  96   0.0000       0.892185        24.2776 
  97   0.0000       0.894245        24.3336 
  98   0.0000       0.894261        24.3341 
  99   0.0000       0.905591        24.6424 
 100   0.0000       0.908979        24.7346 
 101   0.0000       0.967038        26.3144 
 102   0.0000       0.983977        26.7754 
 103   0.0000       0.984118        26.7792 
 104   0.0000       0.987391        26.8683 
 105   0.0000       1.000935        27.2368 
 106   0.0000       1.078497        29.3474 
 107   0.0000       1.078510        29.3477 
 108   0.0000       1.087654        29.5966 
 109   0.0000       1.123161        30.5628 
 110   0.0000       1.170948        31.8631 
 111   0.0000       1.194177        32.4952 
 112   0.0000       1.194221        32.4964 
 113   0.0000       1.202306        32.7164 
 114   0.0000       1.202351        32.7176 
 115   0.0000       1.204250        32.7693 
 116   0.0000       1.209627        32.9156 
 117   0.0000       1.232071        33.5264 
 118   0.0000       1.232113        33.5275 
 119   0.0000       1.239662        33.7329 
 120   0.0000       1.297076        35.2952 
 121   0.0000       1.297098        35.2958 
 122   0.0000       1.302761        35.4499 
 123   0.0000       1.362879        37.0858 
 124   0.0000       1.367166        37.2025 
 125   0.0000       1.367923        37.2231 
 126   0.0000       1.390635        37.8411 
 127   0.0000       1.399063        38.0704 
 128   0.0000       1.604936        43.6725 
 129   0.0000       1.616224        43.9797 
 130   0.0000       1.664761        45.3005 
 131   0.0000       1.679337        45.6971 
 132   0.0000       1.679567        45.7033 
 133   0.0000       1.763868        47.9973 
 134   0.0000       1.773768        48.2667 
 135   0.0000       1.778072        48.3838 
 136   0.0000       1.783019        48.5184 
 137   0.0000       1.783705        48.5371 
 138   0.0000       1.787575        48.6424 
 139   0.0000       1.790820        48.7307 
 140   0.0000       1.790834        48.7311 
 141   0.0000       1.802049        49.0363 
 142   0.0000       1.806177        49.1486 
 143   0.0000       1.806266        49.1510 
 144   0.0000       1.808167        49.2027 
 145   0.0000       1.808210        49.2039 
 146   0.0000       1.829534        49.7841 
 147   0.0000       1.843196        50.1559 
 148   0.0000       1.855494        50.4906 
 149   0.0000       1.855503        50.4908 
 150   0.0000       1.986688        54.0605 
 151   0.0000       1.986859        54.0652 
 152   0.0000       2.003505        54.5181 
 153   0.0000       2.013379        54.7868 
 154   0.0000       2.013837        54.7993 
 155   0.0000       2.023114        55.0517 
 156   0.0000       2.024256        55.0828 
 157   0.0000       2.026700        55.1493 
 158   0.0000       2.027432        55.1692 
 159   0.0000       2.098373        57.0996 
 160   0.0000       2.112124        57.4738 
 161   0.0000       2.358111        64.1675 
 162   0.0000       2.640986        71.8649 
 163   0.0000       2.655962        72.2724 
 164   0.0000       2.757642        75.0393 
 165   0.0000       2.758799        75.0707 
 166   0.0000       2.760259        75.1105 
 167   0.0000       2.762064        75.1596 
 168   0.0000       2.778973        75.6197 
 169   0.0000       2.785367        75.7937 
 170   0.0000       2.787599        75.8544 
 171   0.0000       2.787601        75.8545 
 172   0.0000       2.787918        75.8631 
 173   0.0000       2.789052        75.8940 
 174   0.0000       2.789060        75.8942 
 175   0.0000       2.789281        75.9002 
 176   0.0000       2.794318        76.0373 
 177   0.0000       3.170648        86.2777 
 178   0.0000       3.189027        86.7778 
 179   0.0000       3.189415        86.7884 
 180   0.0000       3.330913        90.6388 
 181   0.0000       3.330919        90.6389 
 182   0.0000       3.351741        91.2055 
 183   0.0000       3.355950        91.3200 
 184   0.0000       3.360165        91.4347 
 185   0.0000       3.360170        91.4349 
 186   0.0000       3.373704        91.8032 
 187   0.0000       3.373724        91.8037 
 188   0.0000       3.396201        92.4153 
 189   0.0000       3.396420        92.4213 
 190   0.0000       3.400376        92.5289 
 191   0.0000       3.403946        92.6261 
 192   0.0000       3.790568       103.1466 
 193   0.0000       3.811331       103.7116 
 194   0.0000       3.829465       104.2050 
 195   0.0000       3.872604       105.3789 
 196   0.0000       3.896654       106.0334 
 197   0.0000       3.896757       106.0362 
 198   0.0000      68.881605      1874.3638 
 199   0.0000     575.632497     15663.7566 

                    ********************************
                    * MULLIKEN POPULATION ANALYSIS *
                    ********************************

--------------------------------------------
MULLIKEN ATOMIC CHARGES AND SPIN POPULATIONS
--------------------------------------------
   0 W :   -0.677379   -0.009511
   1 C :    0.020602    0.186394
   2 C :    0.116008    0.001664
   3 C :    0.020641    0.186522
   4 C :    0.116011    0.001663
   5 C :    0.020653    0.186519
   6 C :    0.020610    0.186381
   7 O :   -0.114016    0.069287
   8 O :   -0.090648   -0.008346
   9 O :   -0.090794   -0.008349
  10 O :   -0.113836    0.069242
  11 O :   -0.113939    0.069288
  12 O :   -0.113913    0.069247
Sum of atomic charges         :   -1.0000000
Sum of atomic spin populations:    1.0000000

-----------------------------------------------------
MULLIKEN REDUCED ORBITAL CHARGES AND SPIN POPULATIONS
-----------------------------------------------------
CHARGE
  0 W s       :     2.637343  s :     2.637343
      pz      :     2.114186  p :     6.428925
      px      :     2.114202
      py      :     2.200537
      dz2     :     0.811251  d :     5.543541
      dxz     :     1.336602
      dyz     :     1.307053
      dx2y2   :     0.781609
      dxy     :     1.307026
      f0      :     0.013093  f :     0.067570
      f+1     :     0.006444
      f-1     :     0.014316
      f+2     :     0.002133
      f-2     :     0.000072
      f+3     :     0.008820
      f-3     :     0.022690
  1 C s       :     3.405288  s :     3.405288
      pz      :     0.660394  p :     2.496354
      px      :     1.031202
      py      :     0.804758
      dz2     :     0.005772  d :     0.077757
      dxz     :     0.026977
      dyz     :     0.000505
      dx2y2   :     0.016070
      dxy     :     0.028433
  2 C s       :     3.433154  s :     3.433154
      pz      :     0.663638  p :     2.372528
      px      :     0.663637
      py      :     1.045253
      dz2     :     0.005525  d :     0.078309
      dxz     :     0.000258
      dyz     :     0.028081
      dx2y2   :     0.016365
      dxy     :     0.028080
  3 C s       :     3.405263  s :     3.405263
      pz      :     0.660368  p :     2.496349
      px      :     1.031166
      py      :     0.804814
      dz2     :     0.005772  d :     0.077748
      dxz     :     0.026973
      dyz     :     0.000505
      dx2y2   :     0.016069
      dxy     :     0.028428
  4 C s       :     3.433154  s :     3.433154
      pz      :     0.663605  p :     2.372514
      px      :     0.663604
      py      :     1.045305
      dz2     :     0.005525  d :     0.078322
      dxz     :     0.000258
      dyz     :     0.028087
      dx2y2   :     0.016367
      dxy     :     0.028084
  5 C s       :     3.405274  s :     3.405274
      pz      :     1.031042  p :     2.496332
      px      :     0.660456
      py      :     0.804833
      dz2     :     0.021494  d :     0.077741
      dxz     :     0.026962
      dyz     :     0.028418
      dx2y2   :     0.000356
      dxy     :     0.000511
  6 C s       :     3.405283  s :     3.405283
      pz      :     1.031087  p :     2.496344
      px      :     0.660516
      py      :     0.804741
      dz2     :     0.021497  d :     0.077763
      dxz     :     0.026967
      dyz     :     0.028426
      dx2y2   :     0.000360
      dxy     :     0.000514
  7 O s       :     3.701753  s :     3.701753
      pz      :     1.386293  p :     4.390022
      px      :     1.469851
      py      :     1.533878
      dz2     :     0.008984  d :     0.022241
      dxz     :     0.006511
      dyz     :     0.006613
      dx2y2   :     0.000067
      dxy     :     0.000067
  8 O s       :     3.707628  s :     3.707628
      pz      :     1.488580  p :     4.360805
      px      :     1.488560
      py      :     1.383665
      dz2     :     0.002274  d :     0.022216
      dxz     :     0.000005
      dyz     :     0.006561
      dx2y2   :     0.006814
      dxy     :     0.006562
  9 O s       :     3.707709  s :     3.707709
      pz      :     1.488628  p :     4.360875
      px      :     1.488616
      py      :     1.383630
      dz2     :     0.002273  d :     0.022209
      dxz     :     0.000005
      dyz     :     0.006559
      dx2y2   :     0.006813
      dxy     :     0.006559
 10 O s       :     3.701641  s :     3.701641
      pz      :     1.386345  p :     4.389945
      px      :     1.469801
      py      :     1.533799
      dz2     :     0.008987  d :     0.022250
      dxz     :     0.006514
      dyz     :     0.006615
      dx2y2   :     0.000068
      dxy     :     0.000067
 11 O s       :     3.701709  s :     3.701709
      pz      :     1.469842  p :     4.389985
      px      :     1.386291
      py      :     1.533852
      dz2     :     0.002293  d :     0.022245
      dxz     :     0.006512
      dyz     :     0.000065
      dx2y2   :     0.006759
      dxy     :     0.006615
 12 O s       :     3.701682  s :     3.701682
      pz      :     1.469851  p :     4.389985
      px      :     1.386294
      py      :     1.533839
      dz2     :     0.002293  d :     0.022246
      dxz     :     0.006513
      dyz     :     0.000065
      dx2y2   :     0.006760
      dxy     :     0.006616

SPIN
  0 W s       :    -0.015371  s :    -0.015371
      pz      :    -0.003483  p :     0.080733
      px      :    -0.003479
      py      :     0.087694
      dz2     :    -0.007004  d :    -0.095832
      dxz     :    -0.007908
      dyz     :    -0.030270
      dx2y2   :    -0.020361
      dxy     :    -0.030288
      f0      :    -0.000166  f :     0.020960
      f+1     :    -0.000020
      f-1     :     0.007973
      f+2     :     0.000012
      f-2     :     0.000001
      f+3     :    -0.000122
      f-3     :     0.013281
  1 C s       :     0.014177  s :     0.014177
      pz      :     0.001851  p :     0.170908
      px      :     0.003472
      py      :     0.165586
      dz2     :    -0.000007  d :     0.001309
      dxz     :    -0.000106
      dyz     :     0.000022
      dx2y2   :    -0.000112
      dxy     :     0.001512
  2 C s       :     0.001671  s :     0.001671
      pz      :    -0.004976  p :     0.000652
      px      :    -0.004972
      py      :     0.010601
      dz2     :    -0.000030  d :    -0.000660
      dxz     :    -0.000002
      dyz     :    -0.000273
      dx2y2   :    -0.000083
      dxy     :    -0.000273
  3 C s       :     0.014178  s :     0.014178
      pz      :     0.001854  p :     0.171035
      px      :     0.003473
      py      :     0.165707
      dz2     :    -0.000007  d :     0.001309
      dxz     :    -0.000106
      dyz     :     0.000022
      dx2y2   :    -0.000112
      dxy     :     0.001512
  4 C s       :     0.001666  s :     0.001666
      pz      :    -0.004971  p :     0.000656
      px      :    -0.004972
      py      :     0.010598
      dz2     :    -0.000030  d :    -0.000660
      dxz     :    -0.000002
      dyz     :    -0.000273
      dx2y2   :    -0.000083
      dxy     :    -0.000272
  5 C s       :     0.014182  s :     0.014182
      pz      :     0.003470  p :     0.171029
      px      :     0.001862
      py      :     0.165697
      dz2     :    -0.000117  d :     0.001308
      dxz     :    -0.000106
      dyz     :     0.001512
      dx2y2   :    -0.000003
      dxy     :     0.000022
  6 C s       :     0.014172  s :     0.014172
      pz      :     0.003468  p :     0.170901
      px      :     0.001857
      py      :     0.165576
      dz2     :    -0.000117  d :     0.001309
      dxz     :    -0.000106
      dyz     :     0.001512
      dx2y2   :    -0.000003
      dxy     :     0.000022
  7 O s       :     0.001290  s :     0.001290
      pz      :    -0.002096  p :     0.067917
      px      :    -0.000158
      py      :     0.070171
      dz2     :    -0.000016  d :     0.000080
      dxz     :    -0.000025
      dyz     :     0.000121
      dx2y2   :    -0.000002
      dxy     :     0.000001
  8 O s       :    -0.000244  s :    -0.000244
      pz      :    -0.004052  p :    -0.008129
      px      :    -0.004052
      py      :    -0.000025
      dz2     :     0.000001  d :     0.000026
      dxz     :     0.000000
      dyz     :     0.000011
      dx2y2   :     0.000003
      dxy     :     0.000011
  9 O s       :    -0.000244  s :    -0.000244
      pz      :    -0.004055  p :    -0.008132
      px      :    -0.004052
      py      :    -0.000025
      dz2     :     0.000001  d :     0.000026
      dxz     :     0.000000
      dyz     :     0.000011
      dx2y2   :     0.000003
      dxy     :     0.000011
 10 O s       :     0.001289  s :     0.001289
      pz      :    -0.002094  p :     0.067873
      px      :    -0.000158
      py      :     0.070125
      dz2     :    -0.000016  d :     0.000080
      dxz     :    -0.000025
      dyz     :     0.000121
      dx2y2   :    -0.000002
      dxy     :     0.000001
 11 O s       :     0.001290  s :     0.001290
      pz      :    -0.000161  p :     0.067918
      px      :    -0.002095
      py      :     0.070175
      dz2     :    -0.000013  d :     0.000080
      dxz     :    -0.000025
      dyz     :     0.000001
      dx2y2   :    -0.000004
      dxy     :     0.000121
 12 O s       :     0.001289  s :     0.001289
      pz      :    -0.000161  p :     0.067878
      px      :    -0.002094
      py      :     0.070132
      dz2     :    -0.000013  d :     0.000080
      dxz     :    -0.000025
      dyz     :     0.000001
      dx2y2   :    -0.000004
      dxy     :     0.000121


                     *******************************
                     * LOEWDIN POPULATION ANALYSIS *
                     *******************************

-------------------------------------------
LOEWDIN ATOMIC CHARGES AND SPIN POPULATIONS
-------------------------------------------
   0 W :   -1.295944    0.019388
   1 C :    0.046401    0.155566
   2 C :    0.124890    0.027672
   3 C :    0.046389    0.155676
   4 C :    0.124859    0.027691
   5 C :    0.046412    0.155676
   6 C :    0.046389    0.155555
   7 O :   -0.033565    0.079055
   8 O :   -0.002666   -0.006674
   9 O :   -0.002800   -0.006678
  10 O :   -0.033400    0.079006
  11 O :   -0.033495    0.079058
  12 O :   -0.033470    0.079010

----------------------------------------------------
LOEWDIN REDUCED ORBITAL CHARGES AND SPIN POPULATIONS
----------------------------------------------------
CHARGE
  0 W s       :     2.451481  s :     2.451481
      pz      :     2.303310  p :     6.969140
      px      :     2.303334
      py      :     2.362496
      dz2     :     0.938765  d :     5.675750
      dxz     :     1.287615
      dyz     :     1.262315
      dx2y2   :     0.924793
      dxy     :     1.262262
      f0      :     0.047766  f :     0.199573
      f+1     :     0.021968
      f-1     :     0.035832
      f+2     :     0.005410
      f-2     :     0.000159
      f+3     :     0.031318
      f-3     :     0.057119
  1 C s       :     3.130731  s :     3.130731
      pz      :     0.685464  p :     2.652420
      px      :     1.156459
      py      :     0.810496
      dz2     :     0.015162  d :     0.170449
      dxz     :     0.053183
      dyz     :     0.000946
      dx2y2   :     0.043355
      dxy     :     0.057802
  2 C s       :     3.159835  s :     3.159835
      pz      :     0.684511  p :     2.546443
      px      :     0.684534
      py      :     1.177399
      dz2     :     0.014805  d :     0.168832
      dxz     :     0.000439
      dyz     :     0.054699
      dx2y2   :     0.044190
      dxy     :     0.054700
  3 C s       :     3.130780  s :     3.130780
      pz      :     0.685450  p :     2.652408
      px      :     1.156437
      py      :     0.810521
      dz2     :     0.015162  d :     0.170422
      dxz     :     0.053172
      dyz     :     0.000947
      dx2y2   :     0.043351
      dxy     :     0.057790
  4 C s       :     3.159826  s :     3.159826
      pz      :     0.684487  p :     2.546452
      px      :     0.684510
      py      :     1.177455
      dz2     :     0.014806  d :     0.168863
      dxz     :     0.000440
      dyz     :     0.054710
      dx2y2   :     0.044196
      dxy     :     0.054710
  5 C s       :     3.130786  s :     3.130786
      pz      :     1.156291  p :     2.652395
      px      :     0.685550
      py      :     0.810554
      dz2     :     0.057919  d :     0.170406
      dxz     :     0.053157
      dyz     :     0.057772
      dx2y2   :     0.000600
      dxy     :     0.000958
  6 C s       :     3.130730  s :     3.130730
      pz      :     1.156312  p :     2.652418
      px      :     0.685627
      py      :     0.810478
      dz2     :     0.057927  d :     0.170463
      dxz     :     0.053176
      dyz     :     0.057789
      dx2y2   :     0.000606
      dxy     :     0.000965
  7 O s       :     3.495043  s :     3.495043
      pz      :     1.550583  p :     4.502556
      px      :     1.442270
      py      :     1.509703
      dz2     :     0.018579  d :     0.035966
      dxz     :     0.007884
      dyz     :     0.009331
      dx2y2   :     0.000079
      dxy     :     0.000093
  8 O s       :     3.498933  s :     3.498933
      pz      :     1.457805  p :     4.468969
      px      :     1.457803
      py      :     1.553362
      dz2     :     0.004781  d :     0.034764
      dxz     :     0.000006
      dyz     :     0.007821
      dx2y2   :     0.014332
      dxy     :     0.007824
  9 O s       :     3.499005  s :     3.499005
      pz      :     1.457869  p :     4.469040
      px      :     1.457871
      py      :     1.553300
      dz2     :     0.004780  d :     0.034755
      dxz     :     0.000006
      dyz     :     0.007819
      dx2y2   :     0.014329
      dxy     :     0.007821
 10 O s       :     3.494942  s :     3.494942
      pz      :     1.550646  p :     4.502479
      px      :     1.442228
      py      :     1.509605
      dz2     :     0.018580  d :     0.035979
      dxz     :     0.007891
      dyz     :     0.009334
      dx2y2   :     0.000080
      dxy     :     0.000094
 11 O s       :     3.495005  s :     3.495005
      pz      :     1.442215  p :     4.502519
      px      :     1.550641
      py      :     1.509662
      dz2     :     0.004658  d :     0.035971
      dxz     :     0.007881
      dyz     :     0.000091
      dx2y2   :     0.014008
      dxy     :     0.009334
 12 O s       :     3.494978  s :     3.494978
      pz      :     1.442220  p :     4.502518
      px      :     1.550653
      py      :     1.509646
      dz2     :     0.004658  d :     0.035974
      dxz     :     0.007881
      dyz     :     0.000091
      dx2y2   :     0.014009
      dxy     :     0.009334

SPIN
  0 W s       :    -0.002734  s :    -0.002734
      pz      :    -0.001902  p :     0.061734
      px      :    -0.001899
      py      :     0.065535
      dz2     :    -0.006306  d :    -0.077806
      dxz     :    -0.009041
      dyz     :    -0.027712
      dx2y2   :    -0.007025
      dxy     :    -0.027721
      f0      :     0.000031  f :     0.038193
      f+1     :     0.000091
      f-1     :     0.014262
      f+2     :     0.000045
      f-2     :     0.000001
      f+3     :     0.000007
      f-3     :     0.023755
  1 C s       :     0.003869  s :     0.003869
      pz      :     0.001946  p :     0.146011
      px      :    -0.000376
      py      :     0.144440
      dz2     :    -0.000012  d :     0.005686
      dxz     :    -0.000110
      dyz     :     0.000057
      dx2y2   :     0.000110
      dxy     :     0.005642
  2 C s       :     0.019622  s :     0.019622
      pz      :    -0.003310  p :     0.009495
      px      :    -0.003307
      py      :     0.016111
      dz2     :    -0.000048  d :    -0.001444
      dxz     :    -0.000001
      dyz     :    -0.000625
      dx2y2   :    -0.000145
      dxy     :    -0.000625
  3 C s       :     0.003873  s :     0.003873
      pz      :     0.001948  p :     0.146115
      px      :    -0.000377
      py      :     0.144544
      dz2     :    -0.000012  d :     0.005688
      dxz     :    -0.000110
      dyz     :     0.000057
      dx2y2   :     0.000110
      dxy     :     0.005644
  4 C s       :     0.019629  s :     0.019629
      pz      :    -0.003305  p :     0.009506
      px      :    -0.003305
      py      :     0.016116
      dz2     :    -0.000048  d :    -0.001444
      dxz     :    -0.000001
      dyz     :    -0.000625
      dx2y2   :    -0.000145
      dxy     :    -0.000625
  5 C s       :     0.003874  s :     0.003874
      pz      :    -0.000378  p :     0.146116
      px      :     0.001955
      py      :     0.144540
      dz2     :     0.000101  d :     0.005686
      dxz     :    -0.000110
      dyz     :     0.005641
      dx2y2   :    -0.000003
      dxy     :     0.000057
  6 C s       :     0.003869  s :     0.003869
      pz      :    -0.000378  p :     0.145999
      px      :     0.001950
      py      :     0.144427
      dz2     :     0.000101  d :     0.005687
      dxz     :    -0.000110
      dyz     :     0.005641
      dx2y2   :    -0.000003
      dxy     :     0.000058
  7 O s       :     0.001372  s :     0.001372
      pz      :    -0.000480  p :     0.075731
      px      :     0.000063
      py      :     0.076148
      dz2     :     0.000057  d :     0.001952
      dxz     :     0.000003
      dyz     :     0.001875
      dx2y2   :    -0.000000
      dxy     :     0.000018
  8 O s       :     0.000431  s :     0.000431
      pz      :    -0.004072  p :    -0.007080
      px      :    -0.004071
      py      :     0.001063
      dz2     :     0.000013  d :    -0.000025
      dxz     :    -0.000000
      dyz     :    -0.000038
      dx2y2   :     0.000039
      dxy     :    -0.000038
  9 O s       :     0.000431  s :     0.000431
      pz      :    -0.004074  p :    -0.007084
      px      :    -0.004072
      py      :     0.001062
      dz2     :     0.000013  d :    -0.000025
      dxz     :    -0.000000
      dyz     :    -0.000039
      dx2y2   :     0.000039
      dxy     :    -0.000038
 10 O s       :     0.001371  s :     0.001371
      pz      :    -0.000479  p :     0.075683
      px      :     0.000063
      py      :     0.076099
      dz2     :     0.000057  d :     0.001951
      dxz     :     0.000003
      dyz     :     0.001874
      dx2y2   :    -0.000000
      dxy     :     0.000018
 11 O s       :     0.001372  s :     0.001372
      pz      :     0.000059  p :     0.075734
      px      :    -0.000479
      py      :     0.076154
      dz2     :    -0.000006  d :     0.001952
      dxz     :     0.000003
      dyz     :     0.000018
      dx2y2   :     0.000062
      dxy     :     0.001876
 12 O s       :     0.001371  s :     0.001371
      pz      :     0.000060  p :     0.075688
      px      :    -0.000478
      py      :     0.076106
      dz2     :    -0.000006  d :     0.001951
      dxz     :     0.000003
      dyz     :     0.000018
      dx2y2   :     0.000062
      dxy     :     0.001875


                      *****************************
                      * MAYER POPULATION ANALYSIS *
                      *****************************

  NA   - Mulliken gross atomic population
  ZA   - Total nuclear charge
  QA   - Mulliken gross atomic charge
  VA   - Mayer's total valence
  BVA  - Mayer's bonded valence
  FA   - Mayer's free valence

  ATOM       NA         ZA         QA         VA         BVA        FA
  0 W     14.6774    14.0000    -0.6774     6.2628     6.2466     0.0162
  1 C      5.9794     6.0000     0.0206     3.6184     3.5900     0.0285
  2 C      5.8840     6.0000     0.1160     3.4904     3.4884     0.0020
  3 C      5.9794     6.0000     0.0206     3.6184     3.5899     0.0285
  4 C      5.8840     6.0000     0.1160     3.4903     3.4883     0.0020
  5 C      5.9793     6.0000     0.0207     3.6184     3.5899     0.0285
  6 C      5.9794     6.0000     0.0206     3.6184     3.5900     0.0285
  7 O      8.1140     8.0000    -0.1140     2.5174     2.5117     0.0057
  8 O      8.0906     8.0000    -0.0906     2.5524     2.5524     0.0000
  9 O      8.0908     8.0000    -0.0908     2.5523     2.5523     0.0000
 10 O      8.1138     8.0000    -0.1138     2.5176     2.5119     0.0057
 11 O      8.1139     8.0000    -0.1139     2.5175     2.5118     0.0057
 12 O      8.1139     8.0000    -0.1139     2.5175     2.5118     0.0057

  Mayer bond orders larger than 0.100000
B(  0-W ,  1-C ) :   0.9356 B(  0-W ,  2-C ) :   0.9057 B(  0-W ,  3-C ) :   0.9354 
B(  0-W ,  4-C ) :   0.9054 B(  0-W ,  5-C ) :   0.9355 B(  0-W ,  6-C ) :   0.9355 
B(  0-W ,  7-O ) :   0.1135 B(  0-W ,  8-O ) :   0.1197 B(  0-W ,  9-O ) :   0.1198 
B(  0-W , 10-O ) :   0.1135 B(  0-W , 11-O ) :   0.1135 B(  0-W , 12-O ) :   0.1135 
B(  1-C , 12-O ) :   2.2782 B(  2-C ,  9-O ) :   2.3609 B(  3-C , 11-O ) :   2.2782 
B(  4-C ,  8-O ) :   2.3611 B(  5-C ,  7-O ) :   2.2781 B(  6-C , 10-O ) :   2.2783 


-------
TIMINGS
-------

Total SCF time: 0 days 0 hours 2 min 17 sec 

Total time                  ....     137.825 sec
Sum of individual times     ....     137.506 sec  ( 99.8%)

[...]
     20       0.019520  -0.109442  -0.170803   0.059310  -0.324176   0.246840
     21       0.129216  -0.006983  -0.176780   0.019293   0.011461   0.018472
     22       0.125528   0.163256   0.055207   0.025091  -0.037004   0.005298
     23       0.010728   0.062986   0.075106  -0.065783   0.401954  -0.295362
     24       0.114068  -0.136900   0.105881  -0.062128   0.003141   0.016398
     25      -0.000662   0.117777  -0.014760  -0.382235   0.139477   0.288588
     26       0.139154   0.133911   0.093071   0.038528  -0.036427  -0.013722
     27      -0.114080   0.136872  -0.105806   0.062001  -0.003224  -0.016110
     28      -0.001107  -0.118427   0.015034   0.382343  -0.139596  -0.288506
     29      -0.139131  -0.133931  -0.093133  -0.038636   0.036566   0.013977
     30      -0.129517   0.006965   0.176916  -0.019261  -0.011636  -0.018652
     31      -0.125492  -0.163446  -0.055245  -0.024908   0.036664  -0.004660
     32      -0.009042  -0.064027  -0.076439   0.066062  -0.402466   0.294850
     33      -0.016309  -0.038245   0.122981   0.304626   0.254282   0.294589
     34      -0.125170   0.145782  -0.092407   0.043711   0.012550   0.005155
     35       0.128666  -0.043797  -0.152460   0.053355   0.071131   0.039388
     36       0.014523   0.037456  -0.121321  -0.304196  -0.254142  -0.295000
     37       0.125183  -0.145660   0.092323  -0.044024  -0.012683  -0.005737
     38      -0.128715   0.043648   0.152674  -0.053133  -0.070937  -0.039547
                 24         25         26         27         28         29    
      0      -0.012526  -0.006492   0.000147  -0.000008   0.000118   0.054161
      1      -0.002053  -0.014099  -0.000019   0.000017  -0.000001  -0.053695
      2      -0.013196   0.008264   0.000158   0.000095   0.000153  -0.044908
      3       0.090682   0.043450  -0.087811   0.021314   0.043329  -0.009746
      4      -0.364481  -0.112909  -0.291725   0.209379   0.299771   0.283058
      5      -0.316501  -0.166412  -0.360894  -0.115575  -0.280078   0.266195
      6      -0.020268  -0.397788  -0.288156   0.161281   0.334898  -0.298475
      7       0.010365   0.087112  -0.059843  -0.037414   0.083695  -0.002600
      8       0.081118   0.322185  -0.011881   0.423472  -0.206243   0.248484
      9       0.094078   0.043132   0.085156  -0.022265  -0.045110  -0.010259
     10      -0.363251  -0.113440   0.303755  -0.205576  -0.291691   0.282579
     11      -0.297303  -0.170861   0.370054   0.116945   0.284412   0.266611
     12      -0.018976  -0.398263   0.285793  -0.162611  -0.335542  -0.298911
     13       0.011962   0.086342   0.060015   0.037866  -0.083704  -0.002735
     14       0.081119   0.323200   0.011357  -0.423708   0.204831   0.247820
     15      -0.271945   0.249567  -0.339176  -0.110285  -0.281753  -0.260068
     16       0.324289  -0.204622   0.014600   0.409427  -0.222557   0.284617
     17       0.024145  -0.016631  -0.108459  -0.112478  -0.024274  -0.042363
     18      -0.253458   0.247113   0.348814   0.115195   0.286254  -0.260347
     19       0.324276  -0.203138  -0.027856  -0.413480   0.214490   0.284161
     20       0.030891  -0.018516   0.107326   0.112644   0.023482  -0.042062
     21       0.070727  -0.071147   0.117528   0.045857   0.073905   0.070341
     22      -0.102487   0.060441  -0.021208  -0.126271   0.068661  -0.080603
     23       0.139228  -0.108415  -0.035971  -0.016451   0.022962   0.055821
     24       0.003390   0.130565  -0.095984   0.037993   0.103924   0.086568
     25       0.022277   0.161523   0.048290   0.023980  -0.021064   0.045360
     26      -0.029261  -0.105091   0.009744   0.126146  -0.065047  -0.071607
     27       0.004388   0.130176   0.096831  -0.037409  -0.103647   0.086365
     28       0.019748   0.162140  -0.047654  -0.024268   0.021089   0.045350
     29      -0.029846  -0.104909  -0.009363  -0.126120   0.065577  -0.071926
     30       0.064752  -0.070488  -0.119989  -0.047245  -0.075139   0.070481
     31      -0.101705   0.059778   0.025450   0.127490  -0.066076  -0.080351
     32       0.141250  -0.109140   0.031375   0.014841  -0.025168   0.055894
     33       0.144474   0.057254   0.051581   0.026566  -0.009589  -0.041011
     34       0.113672   0.032150  -0.104834   0.051393   0.088469  -0.080055
     35       0.111330   0.064629  -0.114499  -0.036761  -0.078210  -0.080787
     36       0.141405   0.057993  -0.055122  -0.027644   0.007636  -0.040932
     37       0.114759   0.031814   0.100970  -0.052672  -0.091068  -0.080317
     38       0.116631   0.063038   0.111265   0.036272   0.076527  -0.080557
                 30         31         32         33         34         35    
      0      -0.000011   0.026455   0.042026  -0.000007   0.000008   0.000181
      1       0.000128   0.049075   0.003331  -0.000001   0.000001   0.000349
      2      -0.000377  -0.027357   0.046420  -0.000013  -0.000004  -0.000258
      3       0.031118  -0.035112   0.031261  -0.152550   0.445822  -0.164497
      4       0.261409  -0.357198   0.127765   0.006810  -0.051802   0.018423
      5      -0.274572   0.339579  -0.212513   0.008258   0.008656  -0.001283
      6       0.251574  -0.024612  -0.349108  -0.038942  -0.002020   0.038317
      7       0.000318   0.011174   0.000183   0.461497  -0.091898  -0.450629
      8       0.304131   0.066714  -0.412149   0.028192  -0.017416  -0.031369
      9       0.031923  -0.036231   0.031843   0.152329  -0.444939  -0.165075
     10       0.261574  -0.358053   0.128085  -0.006861   0.052011   0.018572
     11      -0.275781   0.339594  -0.213771  -0.007830  -0.009438  -0.001652
     12       0.251978  -0.025120  -0.348492   0.038651   0.002032   0.038031
     13       0.000019   0.011141   0.001233  -0.461660   0.091865  -0.450676
     14       0.303453   0.065955  -0.412461  -0.028749   0.017609  -0.031977
     15      -0.281582  -0.304698  -0.260481   0.064599   0.057318  -0.055985
     16      -0.263477  -0.331160  -0.174501  -0.026919  -0.046210   0.034616
     17      -0.022872  -0.028866  -0.014326  -0.304994  -0.348591   0.295895
     18      -0.282868  -0.304813  -0.261929  -0.063847  -0.056653  -0.055487
     19      -0.263945  -0.332040  -0.174712   0.027057   0.046388   0.034857
     20      -0.022258  -0.027904  -0.013938   0.304467   0.347818   0.296455
     21       0.093671   0.100845   0.074617  -0.041717  -0.041463   0.038632
     22       0.087039   0.099428   0.060946   0.020607   0.028958  -0.022659
     23       0.006975  -0.002672   0.021058   0.213149   0.243150  -0.217786
     24      -0.083660   0.000479   0.108802  -0.025015   0.001414  -0.023491
     25       0.000392   0.018607   0.001279   0.322229  -0.064141   0.331195
     26      -0.100507  -0.014541   0.129757   0.019720  -0.008202   0.019794
     27      -0.083484   0.000295   0.109050   0.025225  -0.001438  -0.023704
     28       0.000013   0.018569   0.001251  -0.322103   0.064117   0.331156
     29      -0.100783  -0.014820   0.129643  -0.019286   0.008085   0.019341
     30       0.094111   0.100841   0.075158   0.041186   0.040916   0.038257
     31       0.087219   0.099734   0.061009  -0.020705  -0.029071  -0.022836
     32       0.006888  -0.002812   0.020921  -0.212681  -0.242579  -0.218162
     33      -0.011167   0.021082   0.008898  -0.105828   0.310420   0.121203
     34      -0.086558   0.109068  -0.046931   0.007683  -0.034019  -0.012130
     35       0.091555  -0.108825   0.062987   0.001849   0.006604   0.002557
     36      -0.010951   0.020935   0.009072   0.106052  -0.311108   0.120811
     37      -0.086493   0.108753  -0.046802  -0.007639   0.033882  -0.012021
     38       0.091118  -0.108821   0.062509  -0.002106  -0.005987   0.002286
                 36         37         38    
      0      -0.000378   0.001109   0.000004
      1      -0.000058  -0.001070  -0.000000
      2      -0.000358  -0.000914   0.000005
      3       0.437005  -0.319838   0.333988
      4      -0.049271   0.032173  -0.031439
      5       0.003488  -0.006306   0.008513
      6      -0.006414  -0.024384  -0.021692
      7       0.076352   0.334831   0.334961
      8       0.005466   0.019974   0.017723
      9       0.437059  -0.320491  -0.334181
     10      -0.049531   0.032425   0.031645
     11       0.004395  -0.007006  -0.009198
     12      -0.006306  -0.024147   0.021484
     13       0.075596   0.334672  -0.334924
     14       0.005524   0.020435  -0.018158
     15      -0.065463  -0.056635  -0.056302
     16       0.040735   0.033611   0.032272
     17       0.346163   0.319539   0.329420
     18      -0.064821  -0.056141   0.055736
     19       0.040975   0.033901  -0.032510
     20       0.346339   0.320408  -0.329787
     21       0.045045   0.041153   0.039023
     22      -0.026687  -0.023969  -0.022426
     23      -0.254802  -0.236394  -0.227501
     24       0.003834   0.016805  -0.014987
     25      -0.055569  -0.247536   0.231373
     26      -0.003459  -0.014205   0.012670
     27       0.003913   0.016971   0.015135
     28      -0.056110  -0.247642  -0.231395
     29      -0.003417  -0.013874  -0.012358
     30       0.044564   0.040777  -0.038613
     31      -0.026859  -0.024172   0.022589
     32      -0.254916  -0.236991   0.227752
     33      -0.320929   0.236903   0.230818
     34       0.032420  -0.023178  -0.021993
     35      -0.007008   0.005859   0.006246
     36      -0.320909   0.236463  -0.230691
     37       0.032232  -0.023002   0.021850
     38      -0.006335   0.005342  -0.005754


-----------
IR SPECTRUM
-----------

 Mode   freq       eps      Int      T**2         TX        TY        TZ
       cm**-1   L/(mol*cm) km/mol    a.u.
----------------------------------------------------------------------------
  6:     44.28   0.000000    0.00  0.000000  (-0.000393 -0.000429 -0.000059)
  7:     47.50   0.000078    0.40  0.000516  (-0.001071 -0.015800  0.016274)
  8:     47.55   0.000080    0.40  0.000526  (-0.017511 -0.009910 -0.010993)
  9:     48.65   0.000000    0.00  0.000002  (-0.000834 -0.000091 -0.000947)
 10:     60.22   0.000000    0.00  0.000000  ( 0.000367 -0.000190 -0.000204)
 11:     64.44   0.000032    0.16  0.000155  ( 0.008260 -0.006873 -0.006302)
 12:     80.66   0.000000    0.00  0.000000  ( 0.000073  0.000173 -0.000116)
 13:     81.16   0.000049    0.25  0.000187  (-0.009691 -0.009651 -0.000342)
 14:     81.29   0.000048    0.24  0.000185  ( 0.004371 -0.005378  0.011686)
 15:    300.71   0.002990   15.11  0.003103  (-0.019562 -0.047167  0.022262)
 16:    302.90   0.002983   15.08  0.003073  ( 0.035931  0.004853  0.041937)
 17:    311.64   0.001370    6.92  0.001372  (-0.026750  0.016893  0.019265)
 18:    344.14   0.000000    0.00  0.000000  (-0.000039 -0.000049  0.000028)
 19:    371.13   0.000000    0.00  0.000000  (-0.000117 -0.000027 -0.000130)
 20:    371.97   0.000000    0.00  0.000000  ( 0.000042  0.000043 -0.000000)
 21:    399.87   0.000000    0.00  0.000000  ( 0.000082  0.000022  0.000044)
 22:    399.95   0.000000    0.00  0.000000  ( 0.000048 -0.000008 -0.000084)
 23:    424.75   0.000000    0.00  0.000000  ( 0.000077 -0.000010  0.000110)
 24:    463.50   0.002104   10.63  0.001417  (-0.025716 -0.004108 -0.027178)
 25:    464.34   0.002124   10.73  0.001427  (-0.013713 -0.030481  0.017615)
 26:    472.14   0.000001    0.00  0.000001  ( 0.000388 -0.000080  0.000595)
 27:    472.99   0.000000    0.00  0.000000  ( 0.000195  0.000039  0.000144)
 28:    474.52   0.000000    0.00  0.000000  ( 0.000222  0.000015  0.000233)
 29:    544.25   0.002498   12.62  0.001432  (-0.023269  0.022814  0.019243)
 30:    552.38   0.000000    0.00  0.000000  ( 0.000014 -0.000060  0.000145)
 31:    590.64   0.006278   31.73  0.003317  (-0.024877 -0.045218  0.025566)
 32:    591.29   0.006363   32.16  0.003358  (-0.038938 -0.002999 -0.042815)
 33:   1864.58   0.000000    0.00  0.000000  ( 0.000009 -0.000035 -0.000193)
 34:   1867.02   0.000002    0.01  0.000000  ( 0.000405  0.000125 -0.000342)
 35:   1958.20   0.499428  2523.90  0.079590  (-0.100352 -0.220211  0.145005)
 36:   1958.59   0.499207  2522.79  0.079539  ( 0.200191  0.037261  0.195125)
 37:   1988.13   0.451148  2279.91  0.070814  (-0.161741  0.162669  0.134879)
 38:   2103.24   0.000000    0.00  0.000000  (-0.000096  0.000002 -0.000154)

* The epsilon (eps) is given for a Dirac delta lineshape.
** The dipole moment derivative (T) already includes vibrational overlap.

The first frequency considered to be a vibration is 6
The total number of vibrations considered is 33


--------------------------
THERMOCHEMISTRY AT 298.15K
--------------------------

Temperature         ... 298.15 K
Pressure            ... 1.00 atm
Total Mass          ... 351.91 AMU

Throughout the following assumptions are being made:
  (1) The electronic state is orbitally nondegenerate
      but the spin degeneracy is treated
  (2) There are no thermally accessible electronically excited states
  (3) Hindered rotations indicated by low frequency modes are not
      treated as such but are treated as vibrations and this may
      cause some error
  (4) All equations used are the standard statistical mechanics
      equations for an ideal gas
  (5) All vibrations are strictly harmonic

freq.      44.28  E(vib)   ...       0.53 
freq.      47.50  E(vib)   ...       0.53 
freq.      47.55  E(vib)   ...       0.53 
freq.      48.65  E(vib)   ...       0.53 
freq.      60.22  E(vib)   ...       0.51 
freq.      64.44  E(vib)   ...       0.51 
freq.      80.66  E(vib)   ...       0.48 
freq.      81.16  E(vib)   ...       0.48 
freq.      81.29  E(vib)   ...       0.48 
freq.     300.71  E(vib)   ...       0.26 
freq.     302.90  E(vib)   ...       0.26 
freq.     311.64  E(vib)   ...       0.25 
freq.     344.14  E(vib)   ...       0.23 
freq.     371.13  E(vib)   ...       0.21 
freq.     371.97  E(vib)   ...       0.21 
freq.     399.87  E(vib)   ...       0.19 
freq.     399.95  E(vib)   ...       0.19 
freq.     424.75  E(vib)   ...       0.18 
freq.     463.50  E(vib)   ...       0.16 
freq.     464.34  E(vib)   ...       0.16 
freq.     472.14  E(vib)   ...       0.15 
freq.     472.99  E(vib)   ...       0.15 
freq.     474.52  E(vib)   ...       0.15 
freq.     544.25  E(vib)   ...       0.12 
freq.     552.38  E(vib)   ...       0.12 
freq.     590.64  E(vib)   ...       0.10 
freq.     591.29  E(vib)   ...       0.10 
freq.    1864.58  E(vib)   ...       0.00 
freq.    1867.02  E(vib)   ...       0.00 
freq.    1958.20  E(vib)   ...       0.00 
freq.    1958.59  E(vib)   ...       0.00 
freq.    1988.13  E(vib)   ...       0.00 
freq.    2103.24  E(vib)   ...       0.00 

------------
INNER ENERGY
------------

The inner energy is: U= E(el) + E(ZPE) + E(vib) + E(rot) + E(trans)
    E(el)   - is the total energy from the electronic structure calculation
              = E(kin-el) + E(nuc-el) + E(el-el) + E(nuc-nuc)
    E(ZPE)  - the the zero temperature vibrational energy from the frequency calculation
    E(vib)  - the the finite temperature correction to E(ZPE) due to population
              of excited vibrational states
    E(rot)  - is the rotational thermal energy
    E(trans)- is the translational thermal energy

Summary of contributions to the inner energy U:
Electronic energy                ...   -746.36798322 Eh
Zero point energy                ...      0.04590191 Eh      28.80 kcal/mol
Thermal vibrational correction   ...      0.01244353 Eh       7.81 kcal/mol
Thermal rotational correction    ...      0.00141627 Eh       0.89 kcal/mol
Thermal translational correction ...      0.00141627 Eh       0.89 kcal/mol
-----------------------------------------------------------------------
Total thermal energy                   -746.30680523 Eh


Summary of corrections to the electronic energy:
(perhaps to be used in another calculation)
Total thermal correction                  0.01527608 Eh       9.59 kcal/mol
Non-thermal (ZPE) correction              0.04590191 Eh      28.80 kcal/mol
-----------------------------------------------------------------------
Total correction                          0.06117798 Eh      38.39 kcal/mol


--------
ENTHALPY
--------

The enthalpy is H = U + kB*T
                kB is Boltzmann's constant
Total free energy                 ...   -746.30680523 Eh 
Thermal Enthalpy correction       ...      0.00094421 Eh       0.59 kcal/mol
-----------------------------------------------------------------------
Total Enthalpy                    ...   -746.30586102 Eh


Note: Only C1 symmetry has been detected, increase convergence thresholds 
      if your molecule has a higher symmetry. Symmetry factor of 1.0 is   
      used for the rotational entropy correction. 
 

Note: Rotational entropy computed according to Herzberg 
Infrared and Raman Spectra, Chapter V,1, Van Nostrand Reinhold, 1945 
Point Group:  C1, Symmetry Number:   1  
Rotational constants in cm-1:     0.020726     0.018342     0.018292 

Vibrational entropy computed according to the QRRHO of S. Grimme
Chem.Eur.J. 2012 18 9955


-------
ENTROPY
-------

The entropy contributions are T*S = T*(S(el)+S(vib)+S(rot)+S(trans))
     S(el)   - electronic entropy
     S(vib)  - vibrational entropy
     S(rot)  - rotational entropy
     S(trans)- translational entropy
The entropies will be listed as multiplied by the temperature to get
units of energy

Electronic entropy                ...      0.00065446 Eh      0.41 kcal/mol
Vibrational entropy               ...      0.02261386 Eh     14.19 kcal/mol
Rotational entropy                ...      0.01511746 Eh      9.49 kcal/mol
Translational entropy             ...      0.02065320 Eh     12.96 kcal/mol
-----------------------------------------------------------------------
Final entropy term                ...      0.05903898 Eh     37.05 kcal/mol

In case the symmetry of your molecule has not been determined correctly
or in case you have a reason to use a different symmetry number we print 
out the resulting rotational entropy values for sn=1,12 :
 --------------------------------------------------------
|  sn= 1 | S(rot)=       0.01511746 Eh      9.49 kcal/mol|
|  sn= 2 | S(rot)=       0.01446300 Eh      9.08 kcal/mol|
|  sn= 3 | S(rot)=       0.01408017 Eh      8.84 kcal/mol|
|  sn= 4 | S(rot)=       0.01380855 Eh      8.66 kcal/mol|
|  sn= 5 | S(rot)=       0.01359786 Eh      8.53 kcal/mol|
|  sn= 6 | S(rot)=       0.01342572 Eh      8.42 kcal/mol|
|  sn= 7 | S(rot)=       0.01328017 Eh      8.33 kcal/mol|
|  sn= 8 | S(rot)=       0.01315409 Eh      8.25 kcal/mol|
|  sn= 9 | S(rot)=       0.01304288 Eh      8.18 kcal/mol|
|  sn=10 | S(rot)=       0.01294340 Eh      8.12 kcal/mol|
|  sn=11 | S(rot)=       0.01285341 Eh      8.07 kcal/mol|
|  sn=12 | S(rot)=       0.01277126 Eh      8.01 kcal/mol|
 --------------------------------------------------------


-------------------
GIBBS FREE ENERGY
-------------------

The Gibbs free energy is G = H - T*S

Total enthalpy                    ...   -746.30586102 Eh 
Total entropy correction          ...     -0.05903898 Eh    -37.05 kcal/mol
-----------------------------------------------------------------------
Final Gibbs free energy         ...   -746.36490000 Eh

For completeness - the Gibbs free energy minus the electronic energy
G-E(el)                           ...      0.00308322 Eh      1.93 kcal/mol


Timings for individual modules:

Sum of individual times         ...     4829.900 sec (=  80.498 min)
GTO integral calculation        ...        8.591 sec (=   0.143 min)   0.2 %
SCF iterations                  ...     3056.278 sec (=  50.938 min)  63.3 %
SCF Gradient evaluation         ...      559.403 sec (=   9.323 min)  11.6 %
Geometry relaxation             ...        0.590 sec (=   0.010 min)   0.0 %
Analytical frequency calculation...     1205.038 sec (=  20.084 min)  24.9 %
                             ****ORCA TERMINATED NORMALLY****
TOTAL RUN TIME: 0 days 1 hours 20 minutes 31 seconds 264 msec
