
                                 *****************
                                 * O   R   C   A *
                                 *****************

                                            #,                                       
                                            ###                                      
                                            ####                                     
                                            #####                                    
                                            ######                                   
                                           ########,                                 
                                     ,,################,,,,,                         
                               ,,#################################,,                 
                          ,,##########################################,,             
                       ,#########################################, ''#####,          
                    ,#############################################,,   '####,        
                  ,##################################################,,,,####,       
                ,###########''''           ''''###############################       
              ,#####''   ,,,,##########,,,,          '''####'''          '####       
            ,##' ,,,,###########################,,,                        '##       
           ' ,,###''''                  '''############,,,                           
         ,,##''                                '''############,,,,        ,,,,,,###''
      ,#''                                            '''#######################'''  
     '                                                          ''''####''''         
             ,#######,   #######,   ,#######,      ##                                
            ,#'     '#,  ##    ##  ,#'     '#,    #''#        ######   ,####,        
            ##       ##  ##   ,#'  ##            #'  '#       #        #'  '#        
            ##       ##  #######   ##           ,######,      #####,   #    #        
            '#,     ,#'  ##    ##  '#,     ,#' ,#      #,         ##   #,  ,#        
             '#######'   ##     ##  '#######'  #'      '#     #####' # '####'        



                  #######################################################
                  #                        -***-                        #
                  #          Department of theory and spectroscopy      #
                  #    Directorship and core code : Frank Neese         #
                  #        Max Planck Institute fuer Kohlenforschung    #
                  #                Kaiser Wilhelm Platz 1               #
                  #                 D-45470 Muelheim/Ruhr               #
                  #                      Germany                        #
                  #                                                     #
                  #                  All rights reserved                #
                  #                        -***-                        #
                  #######################################################



                         Program Version 5.0.4 -  RELEASE  -

 With contributions from (in alphabetic order):
   Daniel Aravena         : Magnetic Suceptibility
   Michael Atanasov       : Ab Initio Ligand Field Theory (pilot matlab implementation)
   Alexander A. Auer      : GIAO ZORA, VPT2 properties, NMR spectrum
   Ute Becker             : Parallelization
   Giovanni Bistoni       : ED, misc. LED, open-shell LED, HFLD
   Martin Brehm           : Molecular dynamics
   Dmytro Bykov           : SCF Hessian
   Vijay G. Chilkuri      : MRCI spin determinant printing, contributions to CSF-ICE
   Dipayan Datta          : RHF DLPNO-CCSD density
   Achintya Kumar Dutta   : EOM-CC, STEOM-CC
   Dmitry Ganyushin       : Spin-Orbit,Spin-Spin,Magnetic field MRCI
   Miquel Garcia          : C-PCM and meta-GGA Hessian, CC/C-PCM, Gaussian charge scheme
   Yang Guo               : DLPNO-NEVPT2, F12-NEVPT2, CIM, IAO-localization
   Andreas Hansen         : Spin unrestricted coupled pair/coupled cluster methods
   Benjamin Helmich-Paris : MC-RPA, TRAH-SCF, COSX integrals
   Lee Huntington         : MR-EOM, pCC
   Robert Izsak           : Overlap fitted RIJCOSX, COSX-SCS-MP3, EOM
   Marcus Kettner         : VPT2
   Christian Kollmar      : KDIIS, OOCD, Brueckner-CCSD(T), CCSD density, CASPT2, CASPT2-K
   Simone Kossmann        : Meta GGA functionals, TD-DFT gradient, OOMP2, MP2 Hessian
   Martin Krupicka        : Initial AUTO-CI
   Lucas Lang             : DCDCAS
   Marvin Lechner         : AUTO-CI (C++ implementation), FIC-MRCC
   Dagmar Lenk            : GEPOL surface, SMD
   Dimitrios Liakos       : Extrapolation schemes; Compound Job, initial MDCI parallelization
   Dimitrios Manganas     : Further ROCIS development; embedding schemes
   Dimitrios Pantazis     : SARC Basis sets
   Anastasios Papadopoulos: AUTO-CI, single reference methods and gradients
   Taras Petrenko         : DFT Hessian,TD-DFT gradient, ASA, ECA, R-Raman, ABS, FL, XAS/XES, NRVS
   Peter Pinski           : DLPNO-MP2, DLPNO-MP2 Gradient
   Christoph Reimann      : Effective Core Potentials
   Marius Retegan         : Local ZFS, SOC
   Christoph Riplinger    : Optimizer, TS searches, QM/MM, DLPNO-CCSD(T), (RO)-DLPNO pert. Triples
   Tobias Risthaus        : Range-separated hybrids, TD-DFT gradient, RPA, STAB
   Michael Roemelt        : Original ROCIS implementation
   Masaaki Saitow         : Open-shell DLPNO-CCSD energy and density
   Barbara Sandhoefer     : DKH picture change effects
   Avijit Sen             : IP-ROCIS
   Kantharuban Sivalingam : CASSCF convergence, NEVPT2, FIC-MRCI
   Bernardo de Souza      : ESD, SOC TD-DFT
   Georgi Stoychev        : AutoAux, RI-MP2 NMR, DLPNO-MP2 response
   Willem Van den Heuvel  : Paramagnetic NMR
   Boris Wezisla          : Elementary symmetry handling
   Frank Wennmohs         : Technical directorship


 We gratefully acknowledge several colleagues who have allowed us to
 interface, adapt or use parts of their codes:
   Stefan Grimme, W. Hujo, H. Kruse, P. Pracht,  : VdW corrections, initial TS optimization,
                  C. Bannwarth, S. Ehlert          DFT functionals, gCP, sTDA/sTD-DF
   Ed Valeev, F. Pavosevic, A. Kumar             : LibInt (2-el integral package), F12 methods
   Garnet Chan, S. Sharma, J. Yang, R. Olivares  : DMRG
   Ulf Ekstrom                                   : XCFun DFT Library
   Mihaly Kallay                                 : mrcc  (arbitrary order and MRCC methods)
   Jiri Pittner, Ondrej Demel                    : Mk-CCSD
   Frank Weinhold                                : gennbo (NPA and NBO analysis)
   Christopher J. Cramer and Donald G. Truhlar   : smd solvation model
   Lars Goerigk                                  : TD-DFT with DH, B97 family of functionals
   V. Asgeirsson, H. Jonsson                     : NEB implementation
   FAccTs GmbH                                   : IRC, NEB, NEB-TS, DLPNO-Multilevel, CI-OPT
                                                   MM, QMMM, 2- and 3-layer-ONIOM, Crystal-QMMM,
                                                   LR-CPCM, SF, NACMEs, symmetry and pop. for TD-DFT,
                                                   nearIR, NL-DFT gradient (VV10), updates on ESD,
                                                   ML-optimized integration grids
   S Lehtola, MJT Oliveira, MAL Marques          : LibXC Library
   Liviu Ungur et al                             : ANISO software


 Your calculation uses the libint2 library for the computation of 2-el integrals
 For citations please refer to: http://libint.valeyev.net

 Your ORCA version has been built with support for libXC version: 5.1.0
 For citations please refer to: https://tddft.org/programs/libxc/

 This ORCA versions uses:
   CBLAS   interface :  Fast vector & matrix operations
   LAPACKE interface :  Fast linear algebra routines
   Shared memory     :  Shared parallel matrices


================================================================================

----- Orbital basis set information -----
Your calculation utilizes the basis: def2-SVP
   F. Weigend and R. Ahlrichs, Phys. Chem. Chem. Phys. 7, 3297 (2005).

The basis set includes element-specific modifications.

----- AuxJ basis set information -----
Your calculation utilizes the auxiliary basis: def2/J
   F. Weigend, Phys. Chem. Chem. Phys. 8, 1057 (2006).

The basis set includes element-specific modifications.

================================================================================
                                        WARNINGS
                       Please study these warnings very carefully!
================================================================================


INFO   : the flag for use of the SHARK integral package has been found!


WARNING: TRAH-SCF with ROHF wave function is not implemented yet
  ===> : Turning TRAH off

================================================================================
                                       INPUT FILE
================================================================================
NAME = ReCO6_atom75.inp
|  1> # input to generate an atomic fitting density for Re
|  2> # this file is used internally by ORCA
|  3> #
|  4> # atomic ground state (S=6): 1s2 2s2 2p6 3s2 3p6 4s2 3d10 4p6 5s2 4d10 5p6 6s2 4f14 5d5 
|  5> #
|  6> ! RHF AllowRHF def2-SVP def2/J  NoMulliken NoLoewdin NoMayer NoPrintMOs 
|  7> 
|  8> %output print[p_atomdensfit] 2 end
|  9> 
| 10> %scf
| 11>   guess hcore
| 12>   maxiter 1000
| 13>   maxdisk 500000
| 14>   SCFMode Conventional
| 15>   lshift 0.500000
| 16>   hftyp rohf
| 17>   rohf_case sahf
| 18>   rohf_numop   2
| 19>   rohf_norb[1] 5
| 20>   rohf_nel[1]  5
| 21> end
| 22> 
| 23> %basis
| 24>   NewECP 75
| 25>     N_core 60
| 26>     lmax f
| 27>     s 3
| 28>       1      14.0993051000   1038.9515723000  2
| 29>       2       7.0496525000     29.5617383000  2
| 30>       3       2.5086506000    -16.4498523000  2
| 31>     p 3
| 32>       1      10.1077169000    339.5435096000  2
| 33>       2       5.0538583000     24.9136965000  2
| 34>       3       2.5086506000    -16.4498523000  2
| 35>     d 3
| 36>       1       6.8486179000    111.6996527000  2
| 37>       2       3.4243090000     12.6243293000  2
| 38>       3       2.5086506000    -16.4498523000  2
| 39>     f 1
| 40>       1       2.5086506000     16.4498523000  2
| 41>   end
| 42>   NewGTO 75
| 43>     s 2 
| 44>      1      14.7818620000     -1.3989965692
| 45>      2      12.3240750000      2.3782440179
| 46>     s 1 
| 47>      1       5.5098597284      1.0000000000
| 48>     s 1 
| 49>      1       0.9887410469      1.0000000000
| 50>     s 1 
| 51>      1       0.4283331203      1.0000000000
| 52>     s 1 
| 53>      1       0.1229680453      1.0000000000
| 54>     s 1 
| 55>      1       0.0439498516      1.0000000000
| 56>     p 4 
| 57>      1       7.4040050000      0.5957878713
| 58>      2       6.3502060000     -0.8317066137
| 59>      3       1.3311713455      0.5820310906
| 60>      4       0.6265960055      0.5626939292
| 61>     p 1 
| 62>      1       0.2592271870      1.0000000000
| 63>     p 1 
| 64>      1       0.0483000000      1.0000000000
| 65>     d 4 
| 66>      1       4.0616274916     -0.0845467499
| 67>      2       1.8487943286      0.1992437577
| 68>      3       0.7870204843      0.4980214909
| 69>      4       0.3206984317      0.4770739482
| 70>     d 1 
| 71>      1       0.1189274298      1.0000000000
| 72>     f 1 
| 73>      1       0.4898900000      1.0000000000
| 74>   end
| 75>   NewAuxGTO 75
| 76>     S 1
| 77>      1 1310.72 1.0
| 78>     S 1
| 79>      1  655.36 1.0
| 80>     S 1
| 81>      1  327.68 1.0
| 82>     S 1
| 83>      1  163.84 1.0
| 84>     S 1
| 85>      1   81.82 1.0
| 86>     S 1
| 87>      1   40.96 1.0
| 88>     S 1
| 89>      1   20.48 1.0
| 90>     S 1
| 91>      1   10.24 1.0
| 92>     S 1
| 93>      1    5.12 1.0
| 94>     S 1
| 95>      1    2.56 1.0
| 96>     S 1
| 97>      1    1.28 1.0
| 98>     S 1
| 99>      1    0.64 1.0
|100>     S 1
|101>      1    0.32 1.0
|102>     S 1
|103>      1    0.16 1.0
|104>     S 1
|105>      1    0.08 1.0
|106>     S 1
|107>      1    0.04 1.0
|108>     S 1
|109>      1    0.02 1.0
|110>     S 1
|111>      1    0.01 1.0
|112>   end
|113> end
|114> 
|115> * xyz 0 6
|116> 75  0.0 0.0 0.0
|117> *
|118> 
|119> 
|120>                          ****END OF INPUT****
================================================================================

                       ****************************
                       * Single Point Calculation *
                       ****************************

---------------------------------
CARTESIAN COORDINATES (ANGSTROEM)
---------------------------------
  Re     0.000000    0.000000    0.000000

----------------------------
CARTESIAN COORDINATES (A.U.)
----------------------------
  NO LB      ZA    FRAG     MASS         X           Y           Z
   0 Re   15.0000*   0   186.207    0.000000    0.000000    0.000000
* core charge reduced due to ECP

--------------------------------
INTERNAL COORDINATES (ANGSTROEM)
--------------------------------
 Re     0   0   0     0.000000000000     0.00000000     0.00000000

---------------------------
INTERNAL COORDINATES (A.U.)
---------------------------
 Re     0   0   0     0.000000000000     0.00000000     0.00000000

---------------------
BASIS SET INFORMATION
---------------------
There are 1 groups of distinct atoms

 Group   1 Type Re  : 7s6p5d1f contracted to 6s3p2d1f pattern {211111/411/41/1}

Atom   0Re   basis set group =>   1
---------------------------------
AUXILIARY/J BASIS SET INFORMATION
---------------------------------
There are 1 groups of distinct atoms

 Group   1 Type Re  : 18s contracted to 18s pattern {111111111111111111}

Atom   0Re   basis set group =>   1
-------------------------
ECP PARAMETER INFORMATION
-------------------------

 Group 1, Type Re ECP (replacing 60 core electrons, lmax=3)

Atom   0Re   ECP group =>   1

------------------------------------------------------------------------------
                           ORCA GTO INTEGRAL CALCULATION
------------------------------------------------------------------------------
------------------------------------------------------------------------------
                   ___                                                        
                  /   \      - P O W E R E D   B Y -                         
                 /     \                                                     
                 |  |  |   _    _      __       _____    __    __             
                 |  |  |  | |  | |    /  \     |  _  \  |  |  /  |          
                  \  \/   | |  | |   /    \    | | | |  |  | /  /          
                 / \  \   | |__| |  /  /\  \   | |_| |  |  |/  /          
                |  |  |   |  __  | /  /__\  \  |    /   |      \           
                |  |  |   | |  | | |   __   |  |    \   |  |\   \          
                \     /   | |  | | |  |  |  |  | |\  \  |  | \   \       
                 \___/    |_|  |_| |__|  |__|  |_| \__\ |__|  \__/        
                                                                              
                      - O R C A' S   B I G   F R I E N D -                    
                                      &                                       
                       - I N T E G R A L  F E E D E R -                       
                                                                              
 v1 FN, 2020, v2 2021                                                         
------------------------------------------------------------------------------


Reading SHARK input file ReCO6_atom75.SHARKINP.tmp ... ok
----------------------
SHARK INTEGRAL PACKAGE
----------------------

Number of atoms                             ...      1
Number of basis functions                   ...     32
Number of shells                            ...     12
Maximum angular momentum                    ...      3
Integral batch strategy                     ... SHARK/LIBINT Hybrid
RI-J (if used) integral strategy            ... SPLIT-RIJ (Revised 2003 algorithm where possible)
Printlevel                                  ...      1
Contraction scheme used                     ... SEGMENTED contraction
Coulomb Range Separation                    ... NOT USED
Exchange Range Separation                   ... NOT USED
Finite Nucleus Model                        ... NOT USED
Auxiliary Coulomb fitting basis             ... AVAILABLE
   # of basis functions in Aux-J            ...     18
   # of shells in Aux-J                     ...     18
   Maximum angular momentum in Aux-J        ...      0
Auxiliary J/K fitting basis                 ... NOT available
Auxiliary Correlation fitting basis         ... NOT available
Auxiliary 'external' fitting basis          ... NOT available
Integral threshold                          ...     1.000000e-10
Primitive cut-off                           ...     1.000000e-11
Primitive pair pre-selection threshold      ...     1.000000e-11

Calculating pre-screening integrals         ... done (  0.0 sec) Dimension = 12
Organizing shell pair data                  ... done (  0.0 sec)
Shell pair information
Total number of shell pairs                 ...        78
Shell pairs after pre-screening             ...        78
Total number of primitive shell pairs       ...       203
Primitive shell pairs kept                  ...       203
          la=0 lb=0:     21 shell pairs
          la=1 lb=0:     18 shell pairs
          la=1 lb=1:      6 shell pairs
          la=2 lb=0:     12 shell pairs
          la=2 lb=1:      6 shell pairs
          la=2 lb=2:      3 shell pairs
          la=3 lb=0:      6 shell pairs
          la=3 lb=1:      3 shell pairs
          la=3 lb=2:      2 shell pairs
          la=3 lb=3:      1 shell pairs

Calculating one electron integrals          ... done (  0.0 sec)
Calculating ECP integrals                   ... done (  0.0 sec)
Calculating RI/J V-Matrix + Cholesky decomp.... done (  0.0 sec)
Calculating Nuclear repulsion               ... done (  0.0 sec) ENN=      0.000000000000 Eh
Calculating 4-index integrals               ... 
    -> SHARK/Ints2Disk: Thresh =     1.000000e-10 TCut=    1.000000e-11 
    -> calling libint FockFlag=2 Lmax_loc=3
    -> L=0 0 1 3:     0.000 sec done=        63 (=100.0%) skipped=         0 
    -> L=0 1 0 3:     0.000 sec done=       108 (=100.0%) skipped=         0 
    -> L=0 1 1 3:     0.000 sec done=        54 (=100.0%) skipped=         0 
    -> L=0 1 2 2:     0.000 sec done=        54 (=100.0%) skipped=         0 
    -> L=0 1 3 3:     0.001 sec done=        18 (=100.0%) skipped=         0 
    -> L=0 2 0 3:     0.000 sec done=        72 (=100.0%) skipped=         0 
    -> L=0 2 1 3:     0.000 sec done=        36 (=100.0%) skipped=         0 
    -> L=0 2 2 2:     0.001 sec done=        36 (=100.0%) skipped=         0 
    -> L=0 3 0 3:     0.000 sec done=        21 (=100.0%) skipped=         0 
    -> L=0 3 1 1:     0.000 sec done=        36 (=100.0%) skipped=         0 
    -> L=0 3 1 2:     0.000 sec done=        36 (=100.0%) skipped=         0 
    -> L=0 3 1 3:     0.000 sec done=        18 (=100.0%) skipped=         0 
    -> L=0 3 2 2:     0.000 sec done=        18 (=100.0%) skipped=         0 
    -> L=1 1 1 2:     0.001 sec done=        36 (=100.0%) skipped=         0 
    -> L=1 1 1 3:     0.000 sec done=        18 (=100.0%) skipped=         0 
    -> L=1 1 2 2:     0.000 sec done=        18 (=100.0%) skipped=         0 
    -> L=1 2 1 2:     0.001 sec done=        21 (=100.0%) skipped=         0 
    -> L=1 2 1 3:     0.000 sec done=        18 (=100.0%) skipped=         0 
    -> L=1 2 2 2:     0.001 sec done=        18 (=100.0%) skipped=         0 
    -> L=1 3 1 3:     0.000 sec done=         6 (=100.0%) skipped=         0 
    -> L=1 3 2 2:     0.001 sec done=         9 (=100.0%) skipped=         0 
    -> L=2 2 2 2:     0.001 sec done=         6 (=100.0%) skipped=         0 
    ->Total LIBINT loop time =    0.008 sec
    -> L=0 0 0 0:     0.000 sec done=       231 (=100.0%) skipped=         0 
    -> L=1 0 0 0:     0.000 sec done=       378 (=100.0%) skipped=         0 
    -> L=1 0 1 0:     0.000 sec done=       171 (=100.0%) skipped=         0 
    -> L=1 1 0 0:     0.000 sec done=       126 (=100.0%) skipped=         0 
    -> L=1 1 1 0:     0.000 sec done=       108 (=100.0%) skipped=         0 
    -> L=1 1 1 1:     0.000 sec done=        21 (=100.0%) skipped=         0 
    -> L=2 0 0 0:     0.000 sec done=       252 (=100.0%) skipped=         0 
    -> L=2 0 1 0:     0.000 sec done=       216 (=100.0%) skipped=         0 
    -> L=2 0 1 1:     0.001 sec done=        72 (=100.0%) skipped=         0 
    -> L=2 0 2 0:     0.000 sec done=        78 (=100.0%) skipped=         0 
    -> L=2 1 0 0:     0.000 sec done=       126 (=100.0%) skipped=         0 
    -> L=2 1 1 0:     0.000 sec done=       108 (=100.0%) skipped=         0 
    -> L=2 1 2 0:     0.001 sec done=        72 (=100.0%) skipped=         0 
    -> L=2 2 0 0:     0.000 sec done=        63 (=100.0%) skipped=         0 
    -> L=3 0 0 0:     0.000 sec done=       126 (=100.0%) skipped=         0 
    -> L=3 2 0 0:     0.000 sec done=        42 (=100.0%) skipped=         0 
    -> L=3 2 1 0:     0.000 sec done=        36 (=100.0%) skipped=         0 
    -> L=3 2 1 1:     0.001 sec done=        12 (=100.0%) skipped=         0 
    -> L=3 2 2 0:     0.000 sec done=        24 (=100.0%) skipped=         0 
    -> L=3 2 2 1:     0.001 sec done=        12 (=100.0%) skipped=         0 
    -> L=3 2 2 2:     0.001 sec done=         6 (=100.0%) skipped=         0 
    -> L=3 2 3 0:     0.000 sec done=        12 (=100.0%) skipped=         0 
    -> L=3 2 3 1:     0.001 sec done=         6 (=100.0%) skipped=         0 
    -> L=3 2 3 2:     0.000 sec done=         3 (=100.0%) skipped=         0 
    -> L=3 3 0 0:     0.000 sec done=        21 (=100.0%) skipped=         0 
    -> L=3 3 1 1:     0.000 sec done=         6 (=100.0%) skipped=         0 
    -> L=3 3 2 0:     0.000 sec done=        12 (=100.0%) skipped=         0 
    -> L=3 3 2 1:     0.001 sec done=         6 (=100.0%) skipped=         0 
    -> L=3 3 2 2:     0.000 sec done=         3 (=100.0%) skipped=         0 
    -> L=3 3 3 0:     0.000 sec done=         6 (=100.0%) skipped=         0 
    -> L=3 3 3 1:     0.000 sec done=         3 (=100.0%) skipped=         0 
    -> L=3 3 3 2:     0.001 sec done=         2 (=100.0%) skipped=         0 
    -> L=3 3 3 3:     0.000 sec done=         1 (=100.0%) skipped=         0 
    ->Total SHARK integral loop time =    0.009 sec
    -> Total Integral generation matrix time =    0.021 sec
    -> Number of small integrals   =         0
    -> Number of medium integrals  =         4
    -> Number of large integrals   =     14810
    -> Number of MB stored         =         0 MB


SHARK setup successfully completed in   0.1 seconds

Maximum memory used throughout the entire GTOINT-calculation: 35.5 MB
-------------------------------------------------------------------------------
                                 ORCA SCF
-------------------------------------------------------------------------------

------------
SCF SETTINGS
------------
Hamiltonian:
 Ab initio Hamiltonian  Method          .... Hartree-Fock(GTOs)


General Settings:
 Integral files         IntName         .... ReCO6_atom75
 Hartree-Fock type      HFTyp           .... ROHF
 Total Charge           Charge          ....    0
 Multiplicity           Mult            ....    6
 Number of Electrons    NEL             ....   15
 Basis Dimension        Dim             ....   32
 Nuclear Repulsion      ENuc            ....      0.0000000000 Eh

Convergence Acceleration:
 DIIS                   CNVDIIS         .... on
   Start iteration      DIISMaxIt       ....    12
   Startup error        DIISStart       ....  0.200000
   # of expansion vecs  DIISMaxEq       ....     5
   Bias factor          DIISBfac        ....   1.050
   Max. coefficient     DIISMaxC        ....  10.000
 Trust-Rad. Augm. Hess. CNVTRAH         .... off
 SOSCF                  CNVSOSCF        .... off
 Level Shifting         CNVShift        .... on
   Level shift para.    LevelShift      ....    0.5000
   Turn off err/grad.   ShiftErr        ....    0.0010
 Zerner damping         CNVZerner       .... off
 Static damping         CNVDamp         .... on
   Fraction old density DampFac         ....    0.7000
   Max. Damping (<1)    DampMax         ....    0.9800
   Min. Damping (>=0)   DampMin         ....    0.0000
   Turn off err/grad.   DampErr         ....    0.1000
 Fernandez-Rico         CNVRico         .... off

SCF Procedure:
 Maximum # iterations   MaxIter         ....  1000
 SCF integral mode      SCFMode         .... Conventional
 Integral Threshold     Thresh          ....  1.000e-10 Eh
 Primitive CutOff       TCut            ....  1.000e-11 Eh
 Integral Buffer length BufferLength    .... 1048576
 Integral index format  IndFormat       ....     0
 Integral value format  ValFormat       ....     0
 Integral Storage       Thresh          ....  1.000e-10 Eh

Convergence Tolerance:
 Convergence Check Mode ConvCheckMode   .... Total+1el-Energy
 Convergence forced     ConvForced      .... 0
 Energy Change          TolE            ....  1.000e-06 Eh
 1-El. energy change                    ....  1.000e-03 Eh
 DIIS Error             TolErr          ....  1.000e-06


Diagonalization of the overlap matrix:
Smallest eigenvalue                        ... 1.606e-02
Time for diagonalization                   ...    0.000 sec
Threshold for overlap eigenvalues          ... 1.000e-08
Number of eigenvalues below threshold      ... 0
Time for construction of square roots      ...    0.001 sec
Total time needed                          ...    0.001 sec

--------------------
INITIAL GUESS: HCORE
--------------------
AVERAGE-CONFIGURATION (SAHF) CASE FOUND

-------------------
FINAL ROHF SETTINGS
-------------------
Number of operators             ... 2
  operator   0:   5 orbitals  10 electrons n(mue)= 2.000
  operator   1:   5 orbitals   5 electrons n(mue)= 1.000
Vector coupling coefficients a and b (Zerner convention):
   1.000    1.000           1.000    1.000 
   1.000    1.000           1.000    2.000 

                      -----------------
                      INTIAL GUESS DONE 
                      -----------------

 InCore treatment chosen:
   Memory dedicated               ...    1024 MB
   Memory needed                  ...      0 MB
   Number of tiny    integrals    ...       0
   Number of small   integrals    ...       4
   Number of regular integrals    ...   14810

--------------
SCF ITERATIONS
--------------
ITER       Energy         Delta-E        Max-DP      RMS-DP      [F,P]     Damp
  0    -74.6702880865   0.000000000000 2.07143549  0.08568536  0.5730461 0.7000
  1    -76.0857695193  -1.415481432764 1.44580043  0.05935398  0.2779433 0.7000
                            ****Activating DIIS****
  2    -76.1847853180  -0.099015798745 3.33116218  0.13630493  0.0821324 0.0000
  3    -76.3517008726  -0.166915554538 0.00709599  0.00025769  0.1307569 0.7000
  4    -76.3457720838   0.005928788781 0.00495110  0.00017982  0.1342796 0.7000
  5    -76.3448238390   0.000948244722 0.04254863  0.00157109  0.1343398 0.7000
  6    -76.3066759149   0.038147924188 0.00484859  0.00017901  0.1570242 0.7000
  7    -76.3292069628  -0.022531047985 0.27308746  0.00917586  0.1361644 0.7000
  8    -76.5040363762  -0.174829413393 1.07483241  0.03413163  0.0897438 0.0000
  9    -76.6833244503  -0.179288074106 0.30254589  0.01146954  0.0723899 0.0000
 10    -76.7239123316  -0.040587881273 0.33403666  0.01065366  0.0473994 0.0000
 11    -76.7434566409  -0.019544309246 0.22316816  0.00652413  0.0233995 0.0000
 12    -76.7482160355  -0.004759394597 0.11959144  0.00349462  0.0093058 0.0000
 13    -76.7490794799  -0.000863444448 0.01793422  0.00060222  0.0034230 0.0000
 14    -76.7491315943  -0.000052114424 0.00233540  0.00010292  0.0034686 0.0000
 15    -76.7491372199  -0.000005625579 0.00108347  0.00004899  0.0034799 0.0000
 16    -76.7491390098  -0.000001789906 0.00070608  0.00003281  0.0034844 0.0000
                 **** Energy Check signals convergence ****

               *****************************************************
               *                     SUCCESS                       *
               *           SCF CONVERGED AFTER  17 CYCLES          *
               *****************************************************


----------------
TOTAL SCF ENERGY
----------------

Total Energy       :          -76.74913991 Eh           -2088.45027 eV

Components:
Nuclear Repulsion  :            0.00000000 Eh               0.00000 eV
Electronic Energy  :          -76.74913991 Eh           -2088.45027 eV
One Electron Energy:         -126.00380001 Eh           -3428.73771 eV
Two Electron Energy:           49.25466010 Eh            1340.28744 eV

Virial components:
Potential Energy   :         -101.80694390 Eh           -2770.30778 eV
Kinetic Energy     :           25.05780399 Eh             681.85751 eV
Virial Ratio       :            4.06288372


---------------
SCF CONVERGENCE
---------------

  Last Energy change         ...   -9.0292e-07  Tolerance :   1.0000e-06
  Last MAX-Density change    ...    1.5368e-03  Tolerance :   1.0000e-05
  Last RMS-Density change    ...    4.6161e-05  Tolerance :   1.0000e-06
  Last DIIS Error            ...    3.4867e-03  Tolerance :   1.0000e-06

             **** THE GBW FILE WAS UPDATED (ReCO6_atom75.gbw) ****
             **** DENSITY ReCO6_atom75.scfp WAS UPDATED ****
             **** ENERGY FILE WAS UPDATED (ReCO6_atom75.en.tmp) ****
             **** THE GBW FILE WAS UPDATED (ReCO6_atom75.gbw) ****
             **** DENSITY ReCO6_atom75.scfp WAS UPDATED ****
----------------
ORBITAL ENERGIES
----------------

  NO   OCC          E(Eh)            E(eV) 
   0   2.0000      -4.196832      -114.2016 
   1   2.0000      -2.556381       -69.5627 
   2   2.0000      -2.546143       -69.2841 
   3   2.0000      -2.544834       -69.2485 
   4   2.0000      -0.763664       -20.7804 
   5   1.0000      -0.856136       -23.2966 
   6   1.0000      -0.634019       -17.2525 
   7   1.0000      -0.273339        -7.4379 
   8   1.0000      -0.258947        -7.0463 
   9   1.0000      -0.257236        -6.9997 
  10   0.0000      -0.332325        -9.0430 
  11   0.0000      -0.329943        -8.9782 
  12   0.0000      -0.310320        -8.4442 
  13   0.0000       0.062943         1.7128 
  14   0.0000       0.210850         5.7375 
  15   0.0000       0.227343         6.1863 
  16   0.0000       0.239778         6.5247 
  17   0.0000       0.240768         6.5516 
  18   0.0000       0.248742         6.7686 
  19   0.0000       0.536418        14.5967 
  20   0.0000       0.566367        15.4116 
  21   0.0000       0.569859        15.5066 
  22   0.0000       0.930383        25.3170 
  23   0.0000       0.947537        25.7838 
  24   0.0000       0.952598        25.9215 
  25   0.0000       0.979097        26.6426 
  26   0.0000       0.977431        26.5973 
  27   0.0000       0.974438        26.5158 
  28   0.0000       0.999812        27.2063 
  29   0.0000       1.344395        36.5828 
  30   0.0000      64.571404      1757.0772 
  31   0.0000     505.268648     13749.0589 

Warning: MO coefficients are modified such that the real solid harmonic m components
have the correct order within each shell (0, +1, -1, +2, -2, ...) and all s orbitals
come before all p orbitals etc. (with increasing orbital energy within each block of given angular momentum).

CleanUpVectors: The p-vectors have cracked symmetry
CleanUpVectors: The p-vectors have cracked symmetry
CleanUpVectors: The p-vectors have cracked symmetry
CleanUpVectors: The d-vectors have cracked symmetry at i=4
CleanUpVectors: The d-vectors have cracked symmetry at i=5
CleanUpVectors: The p-vectors have cracked symmetry
CleanUpVectors: The p-vectors have cracked symmetry
CleanUpVectors: The p-vectors have cracked symmetry
CleanUpVectors: The d-vectors have cracked symmetry at i=10
CleanUpVectors: The d-vectors have cracked symmetry at i=11
CleanUpVectors: The d-vectors have cracked symmetry at i=12
CleanUpVectors: The d-vectors have cracked symmetry at i=14
CleanUpVectors: The d-vectors have cracked symmetry at i=15
CleanUpVectors: The d-vectors have cracked symmetry at i=16
CleanUpVectors: The d-vectors have cracked symmetry at i=17
CleanUpVectors: The d-vectors have cracked symmetry at i=18
CleanUpVectors: The p-vectors have cracked symmetry
CleanUpVectors: The p-vectors have cracked symmetry
CleanUpVectors: The p-vectors have cracked symmetry
CleanUpVectors: The f-vectors have cracked symmetry
CleanUpVectors: The f-vectors have cracked symmetry
CleanUpVectors: The f-vectors have cracked symmetry
CleanUpVectors: The f-vectors have cracked symmetry
--------------------------
ATOM BASIS FOR ELEMENT Re
--------------------------
 NewGTO Re
 S 7
    1         14.781862000000        -0.664435880918
    2         12.324075000000         1.129517179571
    3          5.509859728400        -1.003984542193
    4          0.988741046900         1.048556700775
    5          0.428333120300         0.262227541283
    6          0.122968045300        -0.003590470836
    7          0.043949851600         0.001409052052
 P 19
    1          7.404005000000        -0.567015522475
    2          6.350206000000         0.791541054846
    3          1.331171345500        -0.553923097181
    4          0.626596005500        -0.535519784186
    5          7.404005000000         0.030256805030
    6          6.350206000000        -0.042237826692
    7          1.331171345500         0.029558173434
    8          0.626596005500         0.028576144846
    9          7.404005000000         0.004603364182
   10          6.350206000000        -0.006426193986
   11          1.331171345500         0.004497072204
   12          0.626596005500         0.004347663328
   13          0.259227187000        -0.067556424252
   14          0.259227187000         0.003604912875
   15          0.259227187000         0.000548462628
   16          0.048300000000         0.004700840708
   17          0.048300000000        -0.000250843963
   18          0.048300000000        -0.000038164179
   19          0.489890000000        -0.025197856592
 D 19
    1         14.781862000000        -0.000013982195
    2         12.324075000000         0.000028509521
    3          5.509859728400        -0.000058856398
    4          0.988741046900         0.000658329600
    5          0.428333120300        -0.001215865421
    6          0.122968045300         0.000530724814
    7          0.043949851600         0.005941525909
    8          4.061627491600         0.004104376725
    9          1.848794328600        -0.009672417244
   10          0.787020484300        -0.024176775785
   11          0.320698431700        -0.023159863760
   12          4.061627491600        -0.000441196020
   13          1.848794328600         0.001039727169
   14          0.787020484300         0.002598859211
   15          0.320698431700         0.002489547233
   16          4.061627491600         0.004375996112
   17          1.848794328600        -0.010312518342
   18          0.787020484300        -0.025776746126
   19          0.320698431700        -0.024692536910
 P 19
    1          7.404005000000        -0.008937925817
    2          6.350206000000         0.012477145597
    3          1.331171345500        -0.008731548529
    4          0.626596005500        -0.008441455154
    5          7.404005000000        -0.141962597579
    6          6.350206000000         0.198176627944
    7          1.331171345500        -0.138684671967
    8          0.626596005500        -0.134077069506
    9          7.404005000000        -0.167835524212
   10          6.350206000000         0.234294657923
   11          1.331171345500        -0.163960191042
   12          0.626596005500        -0.158512845138
   13          0.259227187000         0.012078443369
   14          0.259227187000         0.191843972567
   15          0.259227187000         0.226807865254
   16          0.048300000000         0.036027603797
   17          0.048300000000         0.572232565373
   18          0.048300000000         0.676522930821
   19          0.489890000000        -0.000389054271
 D 19
    1          4.061627491600         0.004728755247
    2          1.848794328600        -0.011143834219
    3          0.787020484300        -0.027854669056
    4          0.320698431700        -0.026683059235
    5          4.061627491600         0.058599564368
    6          1.848794328600        -0.138096348093
    7          0.787020484300        -0.345179944200
    8          0.320698431700        -0.330661149825
    9          4.061627491600        -0.049856847273
   10          1.848794328600         0.117493169276
   11          0.787020484300         0.293681086970
   12          0.320698431700         0.281328412995
   13          4.061627491600        -0.003539322406
   14          1.848794328600         0.008340804308
   15          0.787020484300         0.020848330933
   16          0.320698431700         0.019971418369
   17          4.061627491600         0.002182325601
   18          1.848794328600        -0.005142891404
   19          0.787020484300        -0.012854959544
 D 19
    1          4.061627491600         0.003383294657
    2          1.848794328600        -0.007973107679
    3          0.787020484300        -0.019929251581
    4          0.320698431700        -0.019090996895
    5          4.061627491600         0.041926380762
    6          1.848794328600        -0.098804148707
    7          0.787020484300        -0.246966780863
    8          0.320698431700        -0.236578981778
    9          4.061627491600        -0.035671206517
   10          1.848794328600         0.084063139464
   11          0.787020484300         0.210120761268
   12          0.320698431700         0.201282761906
   13          4.061627491600        -0.002532288088
   14          1.848794328600         0.005967616672
   15          0.787020484300         0.014916408857
   16          0.320698431700         0.014289001974
   17          4.061627491600         0.001561394101
   18          1.848794328600        -0.003679597717
   19          0.787020484300        -0.009197370908
 F 19
    1          7.404005000000         0.000823963095
    2          6.350206000000        -0.001341112303
    3          1.331171345500         0.004477081798
    4          0.626596005500         0.009195331980
    5          7.404005000000        -0.000043967916
    6          6.350206000000         0.000071563779
    7          1.331171345500        -0.000238903850
    8          0.626596005500        -0.000490676808
    9          7.404005000000        -0.000006689415
   10          6.350206000000         0.000010887935
   11          1.331171345500        -0.000036347573
   12          0.626596005500        -0.000074653092
   13          0.259227187000        -0.075507160380
   14          0.259227187000         0.004029176166
   15          0.259227187000         0.000613011360
   16          0.048300000000         0.078891209960
   17          0.048300000000        -0.004209754167
   18          0.048300000000        -0.000640485059
   19          0.489890000000         0.986491152619
 S 19
    1         14.781862000000        -0.755349311655
    2         12.324075000000         1.284066752856
    3          5.509859728400        -1.217724134963
    4          0.988741046900         3.606003483031
    5          0.428333120300        -4.566262853986
    6          0.122968045300         2.645257901193
    7          0.043949851600        -0.979887138724
    8          4.061627491600        -0.014247194031
    9          1.848794328600         0.015282895928
   10          0.787020484300         0.016261718986
   11          0.320698431700         0.006347677724
   12          4.061627491600         0.001319147399
   13          1.848794328600        -0.001415043016
   14          0.787020484300        -0.001505672223
   15          0.320698431700        -0.000587731349
   16          4.061627491600         0.000169406554
   17          1.848794328600        -0.000181721589
   18          0.787020484300        -0.000193360305
   19          0.320698431700        -0.000075477193
 S 19
    1         14.781862000000        -3.855894969036
    2         12.324075000000         6.554883225343
    3          5.509859728400        -3.880843752934
    4          0.988741046900         1.649028630617
    5          0.428333120300        -1.198149768786
    6          0.122968045300         0.465076833745
    7          0.043949851600        -0.161359477414
    8          4.061627491600         0.000059887259
    9          1.848794328600        -0.000064240772
   10          0.787020484300        -0.000068355198
   11          0.320698431700        -0.000026682097
   12          4.061627491600        -0.000005545048
   13          1.848794328600         0.000005948146
   14          0.787020484300         0.000006329107
   15          0.320698431700         0.000002470534
   16          4.061627491600        -0.000000705733
   17          1.848794328600         0.000000757037
   18          0.787020484300         0.000000805523
   19          4.061627491600        -0.000000274841
 S 16
    1         14.781862000000        -3.353000015961
    2         12.324075000000         5.699979832359
    3          5.509859728400        -1.763953652148
    4          0.988741046900         0.568009945102
    5          0.428333120300        -0.404934021927
    6          0.122968045300         0.156583621890
    7          0.043949851600        -0.054398713935
    8          4.061627491600         0.000002339208
    9          1.848794328600        -0.000002509257
   10          0.787020484300        -0.000002669967
   11          0.320698431700        -0.000001042208
   12          4.061627491600        -0.000000216588
   13          1.848794328600         0.000000232333
   14          0.787020484300         0.000000247214
   15          4.061627491600         0.000000097060
   16          1.848794328600        -0.000000104115
 end
-------------------------------------------
RADIAL EXPECTATION VALUES <R**-3> TO <R**3>
-------------------------------------------
   0 :     0.000000     1.112679     1.013644     1.071087     1.247974     1.583477
   1 :     0.942455     0.878101     0.895157     1.225845     1.650180     2.450482
   2 :     0.939274     0.875677     0.893656     1.228859     1.659942     2.478549
   3 :     0.938920     0.875407     0.893489     1.229196     1.661036     2.481016
   4 :     0.434957     0.503071     0.663951     1.716555     3.346121    36.821144
   5 :     0.431917     0.500811     0.662071     1.724014     3.381575    37.339853
   6 :     0.000000     0.221162     0.410986     2.860345     9.249731    33.240528
   7 :     0.000000     0.087043     0.237221     5.224130    30.372293   188.584699
   8 :     0.067053     0.107967     0.280114     4.347059    21.707478   120.843933
   9 :     0.063174     0.103533     0.274620     4.411215    22.246388   124.585351
  10 :     0.062726     0.103026     0.274000     4.418434    22.307099   125.009081
  11 :     0.397923     0.468098     0.635230     1.835881     3.941977    49.434261
  12 :     0.397372     0.467571     0.634791     1.837793     3.951813    49.649093
  13 :     0.392697     0.463101     0.631053     1.854150     4.036198    51.498190
  14 :     0.100659     0.144954     0.319898     3.774843    15.675141   345.383275
  15 :     0.098893     0.143252     0.318531     3.780158    15.700322   345.937524
  16 :     0.135928     0.178224     0.347251     3.660834    15.104465   333.325493
  17 :     0.136479     0.178750     0.347691     3.658922    15.094629   333.110661
  18 :     0.141154     0.183220     0.351428     3.642565    15.010244   331.261564
  19 :     0.255423     0.271886     0.429961     3.339533    14.988066    82.470880
  20 :     0.262505     0.278674     0.436860     3.272839    14.441449    78.598839
  21 :     0.263287     0.279420     0.437618     3.265468    14.380889    78.164518
  22 :     0.166789     0.279825     0.510427     2.085596     4.599582    74.324322
  23 :     0.166781     0.279954     0.510598     2.084497     4.592879    74.451029
  24 :     0.166800     0.279969     0.510609     2.084465     4.592753    74.452089
  25 :     0.166755     0.279935     0.510586     2.084529     4.593043    74.461405
  26 :     0.166741     0.279877     0.510512     2.085152     4.597691    74.437254
  27 :     0.166743     0.279891     0.510530     2.084999     4.596570    74.444318
  28 :     0.166755     0.279937     0.510589     2.084504     4.592868    74.463283
  29 :     0.000043     0.520166     0.603828     2.464758     8.826841    42.515493
  30 :     0.000000     5.308586     2.050631     0.594452     0.577148     1.416608
  31 :     0.000000    47.651827     5.554009     0.243075     0.103412     0.169129
Making the total density                ... o.k.
o.k.
Initializing the integrals              ... done
Making exponents                        ... done
Making rho(0)                           ... done (         0.000173634)
Integral calculation                    ... Two index integrals                     ... done
Solving the equation system             ... done
atomic density will be written to file ReCO6_atom75.adf

-------
TIMINGS
-------

Total SCF time: 0 days 0 hours 0 min 0 sec 

Total time                  ....       0.464 sec
Sum of individual times     ....       0.178 sec  ( 38.4%)

Fock matrix formation       ....       0.053 sec  ( 11.4%)
Diagonalization             ....       0.013 sec  (  2.8%)
Density matrix formation    ....       0.000 sec  (  0.0%)
Population analysis         ....       0.000 sec  (  0.0%)
Initial guess               ....       0.000 sec  (  0.0%)
Orbital Transformation      ....       0.000 sec  (  0.0%)
Orbital Orthonormalization  ....       0.000 sec  (  0.0%)
DIIS solution               ....       0.112 sec  ( 24.1%)

Maximum memory used throughout the entire SCF-calculation: 228.1 MB

-------------------------   --------------------
FINAL SINGLE POINT ENERGY       -76.749139912739
-------------------------   --------------------


                            ***************************************
                            *     ORCA property calculations      *
                            ***************************************

                                    ---------------------
                                    Active property flags
                                    ---------------------
   (+) Dipole Moment


------------------------------------------------------------------------------
                       ORCA ELECTRIC PROPERTIES CALCULATION
------------------------------------------------------------------------------

Dipole Moment Calculation                       ... on
Quadrupole Moment Calculation                   ... off
Polarizability Calculation                      ... off
GBWName                                         ... ReCO6_atom75.gbw
Electron density                                ... ReCO6_atom75.scfp
The origin for moment calculation is the CENTER OF MASS  = ( 0.000000,  0.000000  0.000000)

-------------
DIPOLE MOMENT
-------------
                                X             Y             Z
Electronic contribution:     -0.00000       0.00000      -0.00000
Nuclear contribution   :      0.00000       0.00000       0.00000
                        -----------------------------------------
Total Dipole Moment    :     -0.00000       0.00000      -0.00000
                        -----------------------------------------
Magnitude (a.u.)       :      0.00000
Magnitude (Debye)      :      0.00000



--------------------
Rotational spectrum 
--------------------
 
Rotational constants in cm-1:     0.000000     0.000000     0.000000 
Rotational constants in MHz :     0.000000     0.000000     0.000000 

 Dipole components along the rotational axes: 
x,y,z [a.u.] :    -0.000000     0.000000    -0.000000 
x,y,z [Debye]:    -0.000000     0.000000    -0.000000 

 

Timings for individual modules:

Sum of individual times         ...        0.610 sec (=   0.010 min)
GTO integral calculation        ...        0.122 sec (=   0.002 min)  20.0 %
SCF iterations                  ...        0.488 sec (=   0.008 min)  80.0 %
                             ****ORCA TERMINATED NORMALLY****
TOTAL RUN TIME: 0 days 0 hours 0 minutes 0 seconds 754 msec
